 Entering Gaussian System, Link 0=g03
 Initial command:
 /datos/easybuild/SLES11SP3/nehalem/software/legacy/gaussian03e01/g03/l1.exe /s/ramon/Gau-22910.inp -scrdir=/s/ramon/
 Entering Link 1 = /datos/easybuild/SLES11SP3/nehalem/software/legacy/gaussian03e01/g03/l1.exe PID=     22912.
  
 Copyright (c) 1988,1990,1992,1993,1995,1998,2003,2004,2007, Gaussian, Inc.
                  All Rights Reserved.
  
 This is the Gaussian(R) 03 program.  It is based on the
 the Gaussian(R) 98 system (copyright 1998, Gaussian, Inc.),
 the Gaussian(R) 94 system (copyright 1995, Gaussian, Inc.),
 the Gaussian 92(TM) system (copyright 1992, Gaussian, Inc.),
 the Gaussian 90(TM) system (copyright 1990, Gaussian, Inc.),
 the Gaussian 88(TM) system (copyright 1988, Gaussian, Inc.),
 the Gaussian 86(TM) system (copyright 1986, Carnegie Mellon
 University), and the Gaussian 82(TM) system (copyright 1983,
 Carnegie Mellon University). Gaussian is a federally registered
 trademark of Gaussian, Inc.
  
 This software contains proprietary and confidential information,
 including trade secrets, belonging to Gaussian, Inc.
  
 This software is provided under written license and may be
 used, copied, transmitted, or stored only in accord with that
 written license.
  
 The following legend is applicable only to US Government
 contracts under FAR:
  
                    RESTRICTED RIGHTS LEGEND
  
 Use, reproduction and disclosure by the US Government is
 subject to restrictions as set forth in subparagraphs (a)
 and (c) of the Commercial Computer Software - Restricted
 Rights clause in FAR 52.227-19.
  
 Gaussian, Inc.
 340 Quinnipiac St., Bldg. 40, Wallingford CT 06492
  
  
 ---------------------------------------------------------------
 Warning -- This program may not be used in any manner that
 competes with the business of Gaussian, Inc. or will provide
 assistance to any competitor of Gaussian, Inc.  The licensee
 of this program is prohibited from giving any competitor of
 Gaussian, Inc. access to this program.  By using this program,
 the user acknowledges that Gaussian, Inc. is engaged in the
 business of creating and licensing software in the field of
 computational chemistry and represents and warrants to the
 licensee that it is not a competitor of Gaussian, Inc. and that
 it will not use this program in any manner prohibited above.
 ---------------------------------------------------------------
  

 Cite this work as:
 Gaussian 03, Revision E.01,
 M. J. Frisch, G. W. Trucks, H. B. Schlegel, G. E. Scuseria, 
 M. A. Robb, J. R. Cheeseman, J. A. Montgomery, Jr., T. Vreven, 
 K. N. Kudin, J. C. Burant, J. M. Millam, S. S. Iyengar, J. Tomasi, 
 V. Barone, B. Mennucci, M. Cossi, G. Scalmani, N. Rega, 
 G. A. Petersson, H. Nakatsuji, M. Hada, M. Ehara, K. Toyota, 
 R. Fukuda, J. Hasegawa, M. Ishida, T. Nakajima, Y. Honda, O. Kitao, 
 H. Nakai, M. Klene, X. Li, J. E. Knox, H. P. Hratchian, J. B. Cross, 
 V. Bakken, C. Adamo, J. Jaramillo, R. Gomperts, R. E. Stratmann, 
 O. Yazyev, A. J. Austin, R. Cammi, C. Pomelli, J. W. Ochterski, 
 P. Y. Ayala, K. Morokuma, G. A. Voth, P. Salvador, J. J. Dannenberg, 
 V. G. Zakrzewski, S. Dapprich, A. D. Daniels, M. C. Strain, 
 O. Farkas, D. K. Malick, A. D. Rabuck, K. Raghavachari, 
 J. B. Foresman, J. V. Ortiz, Q. Cui, A. G. Baboul, S. Clifford, 
 J. Cioslowski, B. B. Stefanov, G. Liu, A. Liashenko, P. Piskorz, 
 I. Komaromi, R. L. Martin, D. J. Fox, T. Keith, M. A. Al-Laham, 
 C. Y. Peng, A. Nanayakkara, M. Challacombe, P. M. W. Gill, 
 B. Johnson, W. Chen, M. W. Wong, C. Gonzalez, and J. A. Pople, 
 Gaussian, Inc., Wallingford CT, 2004.
 
 ******************************************
 Gaussian 03:  EM64L-G03RevE.01 11-Sep-2007
                29-Oct-2020 
 ******************************************
 %nproc=4
 Will use up to    4 processors via shared memory.
 %Mem=8000Mb
 ---------------------------------------------------
 #N CCSD(T, T1Diag, CONVER=5)/cc-pVQZ SCF=Tight Scan
 ---------------------------------------------------
 1/38=1,60=1/1,8;
 2/17=6,18=5,29=3,40=1/2;
 3/5=16,6=2,11=9,16=1,25=1,30=1/1,2,3;
 4//1;
 5/5=2,32=2,38=5/2;
 8/6=7,9=120000,10=1/1,4;
 9/5=7,9=5,14=2,36=1/13;
 6/7=2,8=2,9=2,10=2,18=1/1;
 1/60=1/8(1);
 99/9=1/99;
 2/29=3/2;
 3/5=16,6=2,11=9,16=1,25=1,30=1/1,2,3;
 4/5=5,16=3/1;
 5/5=2,32=2,38=5/2;
 8/6=7,9=120000,10=1/1,4;
 9/5=7,9=5,14=2,36=1/13;
 1/60=1/8(-6);
 99/9=1/99;
 ---
 Ne2
 ---
 Symbolic Z-matrix:
 Charge =  0 Multiplicity = 1
 Ne
 Ne                   1    d
       Variables:
  d                     2.6    Scan 15    0.1    
 
 Scan the potential surface.
 Variable   Value     No. Steps Step-Size
 -------- ----------- --------- ---------
     1       2.600000      15      0.1000
 A total of     16 points will be computed.
 ------------------------------------------------------------------------
                         Z-MATRIX (ANGSTROMS AND DEGREES)
 CD Cent Atom  N1     Length/X     N2    Alpha/Y     N3     Beta/Z      J
 ------------------------------------------------------------------------
   1   1  Ne
   2   2  Ne    1   2.600000(  1)
 ------------------------------------------------------------------------
                         Z-Matrix orientation:                         
 ---------------------------------------------------------------------
 Center     Atomic     Atomic              Coordinates (Angstroms)
 Number     Number      Type              X           Y           Z
 ---------------------------------------------------------------------
    1         10             0        0.000000    0.000000    0.000000
    2         10             0        0.000000    0.000000    2.600000
 ---------------------------------------------------------------------
 Stoichiometry    Ne2
 Framework group  D*H[C*(Ne.Ne)]
 Deg. of freedom     1
 Full point group                 D*H
 Largest Abelian subgroup         D2H     NOp   8
 Largest concise Abelian subgroup C2      NOp   2
                         Standard orientation:                         
 ---------------------------------------------------------------------
 Center     Atomic     Atomic              Coordinates (Angstroms)
 Number     Number      Type              X           Y           Z
 ---------------------------------------------------------------------
    1         10             0        0.000000    0.000000    1.300000
    2         10             0        0.000000    0.000000   -1.300000
 ---------------------------------------------------------------------
 Rotational constants (GHZ):      0.0000000      7.4788481      7.4788481
 Standard basis: CC-pVQZ (5D, 7F)
 There are    22 symmetry adapted basis functions of AG  symmetry.
 There are     7 symmetry adapted basis functions of B1G symmetry.
 There are    13 symmetry adapted basis functions of B2G symmetry.
 There are    13 symmetry adapted basis functions of B3G symmetry.
 There are     7 symmetry adapted basis functions of AU  symmetry.
 There are    22 symmetry adapted basis functions of B1U symmetry.
 There are    13 symmetry adapted basis functions of B2U symmetry.
 There are    13 symmetry adapted basis functions of B3U symmetry.
 Integral buffers will be    131072 words long.
 Raffenetti 1 integral format.
 Two-electron integral symmetry is turned on.
   110 basis functions,   184 primitive gaussians,   140 cartesian basis functions
    10 alpha electrons       10 beta electrons
       nuclear repulsion energy        20.3529695500 Hartrees.
 NAtoms=    2 NActive=    2 NUniq=    1 SFac= 3.00D+00 NAtFMM=   80 NAOKFM=F Big=F
 One-electron integrals computed using PRISM.
 NBasis=   110 RedAO= T  NBF=    22     7    13    13     7    22    13    13
 NBsUse=   110 1.00D-06 NBFU=    22     7    13    13     7    22    13    13
 Harris functional with IExCor=  205 diagonalized for initial guess.
 ExpMin= 2.66D-01 ExpMax= 9.99D+04 ExpMxC= 9.59D+02 IAcc=1 IRadAn=         1 AccDes= 1.00D-06
 HarFok:  IExCor= 205 AccDes= 1.00D-06 IRadAn=         1 IDoV=1
 ScaDFX=  1.000000  1.000000  1.000000  1.000000
 Initial guess orbital symmetries:
       Occupied  (SGU) (SGG) (SGG) (SGU) (SGG) (PIU) (PIU) (PIG)
                 (PIG) (SGU)
       Virtual   (SGG) (PIU) (PIU) (SGU) (PIG) (PIG) (SGG) (SGU)
                 (SGG) (PIU) (PIU) (DLTG) (DLTG) (DLTU) (DLTU)
                 (PIG) (PIG) (SGU) (PIU) (PIU) (SGG) (PIG) (PIG)
                 (SGU) (SGG) (SGU) (SGG) (?A) (?A) (?B) (?B) (DLTG)
                 (DLTU) (DLTG) (DLTU) (?A) (?A) (?B) (?B) (SGU)
                 (SGG) (PIU) (PIU) (DLTG) (DLTG) (DLTU) (DLTU)
                 (PIG) (PIG) (SGU) (SGG) (SGU) (?C) (?D) (?C) (?D)
                 (PHIU) (PHIU) (PHIG) (PHIG) (DLTG) (DLTU) (DLTG)
                 (DLTU) (PIU) (PIU) (PIG) (PIG) (PIU) (PIU) (SGG)
                 (PIG) (PIG) (SGU) (?A) (?A) (?B) (?B) (DLTG) (DLTU)
                 (DLTG) (DLTU) (?A) (?A) (?B) (?B) (SGG) (SGU)
                 (SGG) (DLTG) (DLTU) (PIU) (PIU) (DLTG) (DLTU)
                 (PIG) (PIG) (SGU) (SGG) (SGU)
 The electronic state of the initial guess is 1-SGG.
 Requested convergence on RMS density matrix=1.00D-08 within 128 cycles.
 Requested convergence on MAX density matrix=1.00D-06.
 Requested convergence on             energy=1.00D-06.
 No special actions if energy rises.
 Keep R1 integrals in memory in canonical form, NReq=    54711408.
 SCF Done:  E(RHF) =  -257.086123680     A.U. after    8 cycles
             Convg  =    0.1411D-08             -V/T =  2.0000
             S**2   =   0.0000
 ExpMin= 2.66D-01 ExpMax= 9.99D+04 ExpMxC= 9.59D+02 IAcc=1 IRadAn=         1 AccDes= 1.00D-06
 HarFok:  IExCor= 205 AccDes= 1.00D-06 IRadAn=         1 IDoV=1
 ScaDFX=  1.000000  1.000000  1.000000  1.000000
 Range of M.O.s used for correlation:     3   110
 NBasis=   110 NAE=    10 NBE=    10 NFC=     2 NFV=     0
 NROrb=    108 NOA=     8 NOB=     8 NVA=   100 NVB=   100
 Estimate disk for full transformation   116821602 words.
 Spin components of T(2) and E(2):
     alpha-alpha T2 =       0.9684170263D-02 E2=     -0.7385769549D-01
     alpha-beta  T2 =       0.5235037758D-01 E2=     -0.4397160710D+00
     beta-beta   T2 =       0.9684170263D-02 E2=     -0.7385769549D-01
 ANorm=    0.1035238484D+01
 E2=       -0.5874314620D+00 EUMP2=       -0.25767355514228D+03
 Iterations=  50 Convergence= 0.100D-04
 Iteration Nr.   1
 **********************
 MP4(R+Q)=  0.47381538D-02
 E3=       -0.57883542D-03        EUMP3=      -0.25767413398D+03
 E4(DQ)=   -0.15354486D-03        UMP4(DQ)=   -0.25767428752D+03
 E4(SDQ)=  -0.24166965D-02        UMP4(SDQ)=  -0.25767655067D+03
 DE(Corr)= -0.58320197     E(CORR)=     -257.66932565    
 NORM(A)=   0.10342110D+01
 Iteration Nr.   2
 **********************
 DE(Corr)= -0.58928982     E(CORR)=     -257.67541350     Delta=-6.09D-03
 NORM(A)=   0.10354685D+01
 Iteration Nr.   3
 **********************
 DE(Corr)= -0.58943085     E(CORR)=     -257.67555453     Delta=-1.41D-04
 NORM(A)=   0.10356032D+01
 Iteration Nr.   4
 **********************
 DE(Corr)= -0.58965276     E(CORR)=     -257.67577644     Delta=-2.22D-04
 NORM(A)=   0.10356335D+01
 Iteration Nr.   5
 **********************
 DE(Corr)= -0.58966476     E(CORR)=     -257.67578844     Delta=-1.20D-05
 NORM(A)=   0.10356353D+01
 Iteration Nr.   6
 **********************
 DE(Corr)= -0.58966480     E(CORR)=     -257.67578848     Delta=-4.46D-08
 NORM(A)=   0.10356352D+01
 T1 Diagnostic =     0.00551242
 Largest amplitude= 1.64D-02
 Time for triples=       28.33 seconds.
 T4(CCSD)= -0.11500739D-01
 T5(CCSD)=  0.38773655D-03
 CCSD(T)= -0.25768690149D+03

 **********************************************************************

            Population analysis using the SCF density.

 **********************************************************************

 Orbital symmetries:
       Occupied  (SGU) (SGG) (SGG) (SGU) (SGG) (PIU) (PIU) (PIG)
                 (PIG) (SGU)
       Virtual   (SGG) (PIU) (PIU) (SGU) (PIG) (PIG) (SGG) (SGU)
                 (SGG) (PIU) (PIU) (DLTG) (DLTG) (DLTU) (DLTU)
                 (PIG) (PIG) (SGU) (PIU) (PIU) (SGG) (PIG) (PIG)
                 (SGU) (SGG) (SGU) (DLTG) (DLTG) (PHIU) (PHIU)
                 (PHIG) (PHIG) (DLTU) (DLTU) (PIU) (PIU) (PIG)
                 (PIG) (SGG) (SGU) (SGG) (PIU) (PIU) (DLTG) (DLTG)
                 (DLTU) (DLTU) (PIG) (PIG) (SGU) (?A) (?A) (?B)
                 (?B) (PHIU) (PHIU) (PHIG) (PHIG) (DLTG) (DLTG)
                 (DLTU) (DLTU) (PIU) (PIU) (PIG) (PIG) (SGG) (SGU)
                 (PIU) (PIU) (SGG) (PIG) (PIG) (SGU) (PHIU) (PHIU)
                 (PHIG) (PHIG) (DLTG) (DLTG) (DLTU) (DLTU) (PIU)
                 (PIU) (PIG) (PIG) (SGG) (SGU) (SGG) (PIU) (PIU)
                 (DLTG) (DLTG) (DLTU) (DLTU) (PIG) (PIG) (SGU)
                 (SGG) (SGU)
 The electronic state is 1-SGG.
 Alpha  occ. eigenvalues --  -32.77082 -32.77082  -1.93067  -1.92747  -0.86056
 Alpha  occ. eigenvalues --   -0.85045  -0.85045  -0.84673  -0.84673  -0.83713
 Alpha virt. eigenvalues --    0.68912   0.76427   0.76427   0.85569   0.85765
 Alpha virt. eigenvalues --    0.85765   0.92103   1.17090   1.96156   1.98656
 Alpha virt. eigenvalues --    1.98656   1.99704   1.99704   1.99878   1.99878
 Alpha virt. eigenvalues --    2.01249   2.01249   2.10142   3.90521   3.90521
 Alpha virt. eigenvalues --    3.95021   3.96849   3.96849   4.05252   5.76114
 Alpha virt. eigenvalues --    5.88132   5.90438   5.90438   5.90441   5.90441
 Alpha virt. eigenvalues --    5.90441   5.90441   5.90442   5.90442   5.90454
 Alpha virt. eigenvalues --    5.90454   5.90494   5.90494   5.90766   5.96452
 Alpha virt. eigenvalues --    6.73163   6.75279   6.75279   6.76133   6.76133
 Alpha virt. eigenvalues --    6.76269   6.76269   6.77415   6.77415   6.86396
 Alpha virt. eigenvalues --   14.90391  14.90391  14.90391  14.90391  14.90394
 Alpha virt. eigenvalues --   14.90394  14.90394  14.90394  14.90396  14.90396
 Alpha virt. eigenvalues --   14.90396  14.90396  14.90397  14.90397  14.90397
 Alpha virt. eigenvalues --   14.90397  14.90399  14.90402  15.78331  15.78331
 Alpha virt. eigenvalues --   15.81157  15.83174  15.83174  15.90877  19.79497
 Alpha virt. eigenvalues --   19.79497  19.79497  19.79497  19.79503  19.79503
 Alpha virt. eigenvalues --   19.79504  19.79504  19.79515  19.79515  19.79527
 Alpha virt. eigenvalues --   19.79527  19.79583  19.79787  20.93542  20.94962
 Alpha virt. eigenvalues --   20.94962  20.95462  20.95462  20.95540  20.95540
 Alpha virt. eigenvalues --   20.96223  20.96223  21.00880  66.48219  66.72364
          Condensed to atoms (all electrons):
              1          2
     1  Ne  10.001550  -0.001550
     2  Ne  -0.001550  10.001550
 Mulliken atomic charges:
              1
     1  Ne   0.000000
     2  Ne   0.000000
 Sum of Mulliken charges=   0.00000
 Atomic charges with hydrogens summed into heavy atoms:
              1
     1  Ne   0.000000
     2  Ne   0.000000
 Sum of Mulliken charges=   0.00000
 Electronic spatial extent (au):  <R**2>=   139.3788
 Charge=     0.0000 electrons
 Dipole moment (field-independent basis, Debye):
    X=     0.0000    Y=     0.0000    Z=     0.0000  Tot=     0.0000
 Quadrupole moment (field-independent basis, Debye-Ang):
   XX=    -8.3674   YY=    -8.3674   ZZ=    -8.3862
   XY=     0.0000   XZ=     0.0000   YZ=     0.0000
 Traceless Quadrupole moment (field-independent basis, Debye-Ang):
   XX=     0.0063   YY=     0.0063   ZZ=    -0.0125
   XY=     0.0000   XZ=     0.0000   YZ=     0.0000
 Octapole moment (field-independent basis, Debye-Ang**2):
  XXX=     0.0000  YYY=     0.0000  ZZZ=     0.0000  XYY=     0.0000
  XXY=     0.0000  XXZ=     0.0000  XZZ=     0.0000  YZZ=     0.0000
  YYZ=     0.0000  XYZ=     0.0000
 Hexadecapole moment (field-independent basis, Debye-Ang**3):
 XXXX=    -3.9550 YYYY=    -3.9550 ZZZZ=   -88.8549 XXXY=     0.0000
 XXXZ=     0.0000 YYYX=     0.0000 YYYZ=     0.0000 ZZZX=     0.0000
 ZZZY=     0.0000 XXYY=    -1.3183 XXZZ=   -15.4636 YYZZ=   -15.4636
 XXYZ=     0.0000 YYXZ=     0.0000 ZZXY=     0.0000
 N-N= 2.035296955000D+01 E-N=-6.629895934524D+02  KE= 2.570950920432D+02
 Symmetry AG   KE= 1.112521850935D+02
 Symmetry B1G  KE= 2.175198827201D-37
 Symmetry B2G  KE= 8.565822113434D+00
 Symmetry B3G  KE= 8.565822113434D+00
 Symmetry AU   KE= 2.205731297820D-37
 Symmetry B1U  KE= 1.117456659261D+02
 Symmetry B2U  KE= 8.482798398352D+00
 Symmetry B3U  KE= 8.482798398352D+00
 Variable Step   Value    
 -------- ---- -----------
     1       1    5.102261
 ------------------------------------------------------------------------
                         Z-MATRIX (ANGSTROMS AND DEGREES)
 CD Cent Atom  N1     Length/X     N2    Alpha/Y     N3     Beta/Z      J
 ------------------------------------------------------------------------
   1   1  Ne
   2   2  Ne    1   2.700000(  1)
 ------------------------------------------------------------------------
                         Z-Matrix orientation:                         
 ---------------------------------------------------------------------
 Center     Atomic     Atomic              Coordinates (Angstroms)
 Number     Number      Type              X           Y           Z
 ---------------------------------------------------------------------
    1         10             0        0.000000    0.000000    0.000000
    2         10             0        0.000000    0.000000    2.700000
 ---------------------------------------------------------------------
 Stoichiometry    Ne2
 Framework group  D*H[C*(Ne.Ne)]
 Deg. of freedom     1
 Full point group                 D*H
 Largest Abelian subgroup         D2H     NOp   8
 Largest concise Abelian subgroup C2      NOp   2
                         Standard orientation:                         
 ---------------------------------------------------------------------
 Center     Atomic     Atomic              Coordinates (Angstroms)
 Number     Number      Type              X           Y           Z
 ---------------------------------------------------------------------
    1         10             0        0.000000    0.000000    1.350000
    2         10             0        0.000000    0.000000   -1.350000
 ---------------------------------------------------------------------
 Rotational constants (GHZ):      0.0000000      6.9351184      6.9351184
 Standard basis: CC-pVQZ (5D, 7F)
 There are    22 symmetry adapted basis functions of AG  symmetry.
 There are     7 symmetry adapted basis functions of B1G symmetry.
 There are    13 symmetry adapted basis functions of B2G symmetry.
 There are    13 symmetry adapted basis functions of B3G symmetry.
 There are     7 symmetry adapted basis functions of AU  symmetry.
 There are    22 symmetry adapted basis functions of B1U symmetry.
 There are    13 symmetry adapted basis functions of B2U symmetry.
 There are    13 symmetry adapted basis functions of B3U symmetry.
 Integral buffers will be    131072 words long.
 Raffenetti 1 integral format.
 Two-electron integral symmetry is turned on.
   110 basis functions,   184 primitive gaussians,   140 cartesian basis functions
    10 alpha electrons       10 beta electrons
       nuclear repulsion energy        19.5991558630 Hartrees.
 NAtoms=    2 NActive=    2 NUniq=    1 SFac= 3.00D+00 NAtFMM=   80 NAOKFM=F Big=F
 One-electron integrals computed using PRISM.
 NBasis=   110 RedAO= T  NBF=    22     7    13    13     7    22    13    13
 NBsUse=   110 1.00D-06 NBFU=    22     7    13    13     7    22    13    13
 Initial guess read from the read-write file:
 Initial guess orbital symmetries:
       Occupied  (SGU) (SGG) (SGG) (SGU) (SGG) (PIU) (PIU) (PIG)
                 (PIG) (SGU)
       Virtual   (SGG) (PIU) (PIU) (SGU) (PIG) (PIG) (SGG) (SGU)
                 (SGG) (PIU) (PIU) (DLTG) (DLTG) (DLTU) (DLTU)
                 (PIG) (PIG) (SGU) (PIU) (PIU) (SGG) (PIG) (PIG)
                 (SGU) (SGG) (SGU) (DLTG) (DLTG) (PHIU) (PHIU)
                 (PHIG) (PHIG) (DLTU) (DLTU) (PIU) (PIU) (PIG)
                 (PIG) (SGG) (SGU) (SGG) (PIU) (PIU) (DLTG) (DLTG)
                 (DLTU) (DLTU) (PIG) (PIG) (SGU) (?A) (?A) (?B)
                 (?B) (PHIU) (PHIU) (PHIG) (PHIG) (DLTG) (DLTG)
                 (DLTU) (DLTU) (PIU) (PIU) (PIG) (PIG) (SGG) (SGU)
                 (PIU) (PIU) (SGG) (PIG) (PIG) (SGU) (PHIU) (PHIU)
                 (PHIG) (PHIG) (DLTG) (DLTG) (DLTU) (DLTU) (PIU)
                 (PIU) (PIG) (PIG) (SGG) (SGU) (SGG) (PIU) (PIU)
                 (DLTG) (DLTG) (DLTU) (DLTU) (PIG) (PIG) (SGU)
                 (SGG) (SGU)
 Harris functional with IExCor=  205 diagonalized for initial guess.
 ExpMin= 2.66D-01 ExpMax= 9.99D+04 ExpMxC= 9.59D+02 IAcc=1 IRadAn=         1 AccDes= 1.00D-06
 HarFok:  IExCor= 205 AccDes= 1.00D-06 IRadAn=         1 IDoV=1
 ScaDFX=  1.000000  1.000000  1.000000  1.000000
 Requested convergence on RMS density matrix=1.00D-08 within 128 cycles.
 Requested convergence on MAX density matrix=1.00D-06.
 Requested convergence on             energy=1.00D-06.
 No special actions if energy rises.
 Keep R1 integrals in memory in canonical form, NReq=    54711408.
 SCF Done:  E(RHF) =  -257.086452186     A.U. after    6 cycles
             Convg  =    0.1697D-08             -V/T =  2.0000
             S**2   =   0.0000
 ExpMin= 2.66D-01 ExpMax= 9.99D+04 ExpMxC= 9.59D+02 IAcc=1 IRadAn=         1 AccDes= 1.00D-06
 HarFok:  IExCor= 205 AccDes= 1.00D-06 IRadAn=         1 IDoV=1
 ScaDFX=  1.000000  1.000000  1.000000  1.000000
 Range of M.O.s used for correlation:     3   110
 NBasis=   110 NAE=    10 NBE=    10 NFC=     2 NFV=     0
 NROrb=    108 NOA=     8 NOB=     8 NVA=   100 NVB=   100
 Estimate disk for full transformation   113427042 words.
 Spin components of T(2) and E(2):
     alpha-alpha T2 =       0.9684213172D-02 E2=     -0.7384471887D-01
     alpha-beta  T2 =       0.5236189700D-01 E2=     -0.4397045553D+00
     beta-beta   T2 =       0.9684213172D-02 E2=     -0.7384471887D-01
 ANorm=    0.1035244089D+01
 E2=       -0.5873939930D+00 EUMP2=       -0.25767384617860D+03
 Iterations=  50 Convergence= 0.100D-04
 Iteration Nr.   1
 **********************
 MP4(R+Q)=  0.47312477D-02
 E3=       -0.56160256D-03        EUMP3=      -0.25767440778D+03
 E4(DQ)=   -0.16267486D-03        UMP4(DQ)=   -0.25767457046D+03
 E4(SDQ)=  -0.24259406D-02        UMP4(SDQ)=  -0.25767683372D+03
 DE(Corr)= -0.58315390     E(CORR)=     -257.66960609    
 NORM(A)=   0.10342137D+01
 Iteration Nr.   2
 **********************
 DE(Corr)= -0.58924227     E(CORR)=     -257.67569446     Delta=-6.09D-03
 NORM(A)=   0.10354712D+01
 Iteration Nr.   3
 **********************
 DE(Corr)= -0.58938340     E(CORR)=     -257.67583558     Delta=-1.41D-04
 NORM(A)=   0.10356058D+01
 Iteration Nr.   4
 **********************
 DE(Corr)= -0.58960512     E(CORR)=     -257.67605731     Delta=-2.22D-04
 NORM(A)=   0.10356361D+01
 Iteration Nr.   5
 **********************
 DE(Corr)= -0.58961713     E(CORR)=     -257.67606932     Delta=-1.20D-05
 NORM(A)=   0.10356379D+01
 Iteration Nr.   6
 **********************
 DE(Corr)= -0.58961717     E(CORR)=     -257.67606936     Delta=-4.19D-08
 NORM(A)=   0.10356377D+01
 T1 Diagnostic =     0.00550947
 Largest amplitude= 1.63D-02
 Time for triples=       28.61 seconds.
 T4(CCSD)= -0.11495643D-01
 T5(CCSD)=  0.38820986D-03
 CCSD(T)= -0.25768717679D+03
 Variable Step   Value    
 -------- ---- -----------
     1       2    5.291233
 ------------------------------------------------------------------------
                         Z-MATRIX (ANGSTROMS AND DEGREES)
 CD Cent Atom  N1     Length/X     N2    Alpha/Y     N3     Beta/Z      J
 ------------------------------------------------------------------------
   1   1  Ne
   2   2  Ne    1   2.800000(  1)
 ------------------------------------------------------------------------
                         Z-Matrix orientation:                         
 ---------------------------------------------------------------------
 Center     Atomic     Atomic              Coordinates (Angstroms)
 Number     Number      Type              X           Y           Z
 ---------------------------------------------------------------------
    1         10             0        0.000000    0.000000    0.000000
    2         10             0        0.000000    0.000000    2.800000
 ---------------------------------------------------------------------
 Stoichiometry    Ne2
 Framework group  D*H[C*(Ne.Ne)]
 Deg. of freedom     1
 Full point group                 D*H
 Largest Abelian subgroup         D2H     NOp   8
 Largest concise Abelian subgroup C2      NOp   2
                         Standard orientation:                         
 ---------------------------------------------------------------------
 Center     Atomic     Atomic              Coordinates (Angstroms)
 Number     Number      Type              X           Y           Z
 ---------------------------------------------------------------------
    1         10             0        0.000000    0.000000    1.400000
    2         10             0        0.000000    0.000000   -1.400000
 ---------------------------------------------------------------------
 Rotational constants (GHZ):      0.0000000      6.4485986      6.4485986
 Standard basis: CC-pVQZ (5D, 7F)
 There are    22 symmetry adapted basis functions of AG  symmetry.
 There are     7 symmetry adapted basis functions of B1G symmetry.
 There are    13 symmetry adapted basis functions of B2G symmetry.
 There are    13 symmetry adapted basis functions of B3G symmetry.
 There are     7 symmetry adapted basis functions of AU  symmetry.
 There are    22 symmetry adapted basis functions of B1U symmetry.
 There are    13 symmetry adapted basis functions of B2U symmetry.
 There are    13 symmetry adapted basis functions of B3U symmetry.
 Integral buffers will be    131072 words long.
 Raffenetti 1 integral format.
 Two-electron integral symmetry is turned on.
   110 basis functions,   184 primitive gaussians,   140 cartesian basis functions
    10 alpha electrons       10 beta electrons
       nuclear repulsion energy        18.8991860107 Hartrees.
 NAtoms=    2 NActive=    2 NUniq=    1 SFac= 3.00D+00 NAtFMM=   80 NAOKFM=F Big=F
 One-electron integrals computed using PRISM.
 NBasis=   110 RedAO= T  NBF=    22     7    13    13     7    22    13    13
 NBsUse=   110 1.00D-06 NBFU=    22     7    13    13     7    22    13    13
 Initial guess read from the read-write file:
 Initial guess orbital symmetries:
       Occupied  (SGU) (SGG) (SGG) (SGU) (SGG) (PIU) (PIU) (PIG)
                 (PIG) (SGU)
       Virtual   (SGG) (PIU) (PIU) (PIG) (PIG) (SGU) (SGG) (SGU)
                 (SGG) (PIU) (PIU) (DLTG) (DLTG) (DLTU) (DLTU)
                 (PIG) (PIG) (SGU) (PIU) (PIU) (SGG) (PIG) (PIG)
                 (SGU) (SGG) (SGU) (DLTG) (DLTG) (PHIU) (PHIU)
                 (PHIG) (PHIG) (DLTU) (DLTU) (PIU) (PIU) (PIG)
                 (PIG) (SGG) (SGU) (SGG) (PIU) (PIU) (DLTG) (DLTG)
                 (DLTU) (DLTU) (PIG) (PIG) (SGU) (?A) (?A) (?B)
                 (?B) (PHIU) (PHIU) (PHIG) (PHIG) (DLTG) (DLTG)
                 (DLTU) (DLTU) (PIU) (PIU) (PIG) (PIG) (SGG) (SGU)
                 (PIU) (PIU) (SGG) (PIG) (PIG) (SGU) (PHIU) (PHIU)
                 (PHIG) (PHIG) (DLTG) (DLTG) (DLTU) (DLTU) (PIU)
                 (PIU) (PIG) (PIG) (SGG) (SGU) (SGG) (PIU) (PIU)
                 (DLTG) (DLTG) (DLTU) (DLTU) (PIG) (PIG) (SGU)
                 (SGG) (SGU)
 Harris functional with IExCor=  205 diagonalized for initial guess.
 ExpMin= 2.66D-01 ExpMax= 9.99D+04 ExpMxC= 9.59D+02 IAcc=1 IRadAn=         1 AccDes= 1.00D-06
 HarFok:  IExCor= 205 AccDes= 1.00D-06 IRadAn=         1 IDoV=1
 ScaDFX=  1.000000  1.000000  1.000000  1.000000
 Requested convergence on RMS density matrix=1.00D-08 within 128 cycles.
 Requested convergence on MAX density matrix=1.00D-06.
 Requested convergence on             energy=1.00D-06.
 No special actions if energy rises.
 Keep R1 integrals in memory in canonical form, NReq=    54711408.
 SCF Done:  E(RHF) =  -257.086658554     A.U. after    6 cycles
             Convg  =    0.1377D-08             -V/T =  2.0000
             S**2   =   0.0000
 ExpMin= 2.66D-01 ExpMax= 9.99D+04 ExpMxC= 9.59D+02 IAcc=1 IRadAn=         1 AccDes= 1.00D-06
 HarFok:  IExCor= 205 AccDes= 1.00D-06 IRadAn=         1 IDoV=1
 ScaDFX=  1.000000  1.000000  1.000000  1.000000
 Range of M.O.s used for correlation:     3   110
 NBasis=   110 NAE=    10 NBE=    10 NFC=     2 NFV=     0
 NROrb=    108 NOA=     8 NOB=     8 NVA=   100 NVB=   100
 Estimate disk for full transformation   111809122 words.
 Spin components of T(2) and E(2):
     alpha-alpha T2 =       0.9683865520D-02 E2=     -0.7383416222D-01
     alpha-beta  T2 =       0.5236894080D-01 E2=     -0.4396926283D+00
     beta-beta   T2 =       0.9683865520D-02 E2=     -0.7383416222D-01
 ANorm=    0.1035247155D+01
 E2=       -0.5873609528D+00 EUMP2=       -0.25767401950710D+03
 Iterations=  50 Convergence= 0.100D-04
 Iteration Nr.   1
 **********************
 MP4(R+Q)=  0.47259580D-02
 E3=       -0.54982404D-03        EUMP3=      -0.25767456933D+03
 E4(DQ)=   -0.16934187D-03        UMP4(DQ)=   -0.25767473867D+03
 E4(SDQ)=  -0.24321005D-02        UMP4(SDQ)=  -0.25767700143D+03
 DE(Corr)= -0.58311419     E(CORR)=     -257.66977275    
 NORM(A)=   0.10342145D+01
 Iteration Nr.   2
 **********************
 DE(Corr)= -0.58920217     E(CORR)=     -257.67586072     Delta=-6.09D-03
 NORM(A)=   0.10354718D+01
 Iteration Nr.   3
 **********************
 DE(Corr)= -0.58934354     E(CORR)=     -257.67600210     Delta=-1.41D-04
 NORM(A)=   0.10356061D+01
 Iteration Nr.   4
 **********************
 DE(Corr)= -0.58956499     E(CORR)=     -257.67622355     Delta=-2.21D-04
 NORM(A)=   0.10356363D+01
 Iteration Nr.   5
 **********************
 DE(Corr)= -0.58957700     E(CORR)=     -257.67623555     Delta=-1.20D-05
 NORM(A)=   0.10356381D+01
 Iteration Nr.   6
 **********************
 DE(Corr)= -0.58957704     E(CORR)=     -257.67623559     Delta=-3.81D-08
 NORM(A)=   0.10356380D+01
 T1 Diagnostic =     0.00550441
 Largest amplitude= 1.61D-02
 Time for triples=       28.27 seconds.
 T4(CCSD)= -0.11491098D-01
 T5(CCSD)=  0.38840728D-03
 CCSD(T)= -0.25768733828D+03
 Variable Step   Value    
 -------- ---- -----------
     1       3    5.480206
 ------------------------------------------------------------------------
                         Z-MATRIX (ANGSTROMS AND DEGREES)
 CD Cent Atom  N1     Length/X     N2    Alpha/Y     N3     Beta/Z      J
 ------------------------------------------------------------------------
   1   1  Ne
   2   2  Ne    1   2.900000(  1)
 ------------------------------------------------------------------------
                         Z-Matrix orientation:                         
 ---------------------------------------------------------------------
 Center     Atomic     Atomic              Coordinates (Angstroms)
 Number     Number      Type              X           Y           Z
 ---------------------------------------------------------------------
    1         10             0        0.000000    0.000000    0.000000
    2         10             0        0.000000    0.000000    2.900000
 ---------------------------------------------------------------------
 Stoichiometry    Ne2
 Framework group  D*H[C*(Ne.Ne)]
 Deg. of freedom     1
 Full point group                 D*H
 Largest Abelian subgroup         D2H     NOp   8
 Largest concise Abelian subgroup C2      NOp   2
                         Standard orientation:                         
 ---------------------------------------------------------------------
 Center     Atomic     Atomic              Coordinates (Angstroms)
 Number     Number      Type              X           Y           Z
 ---------------------------------------------------------------------
    1         10             0        0.000000    0.000000    1.450000
    2         10             0        0.000000    0.000000   -1.450000
 ---------------------------------------------------------------------
 Rotational constants (GHZ):      0.0000000      6.0115355      6.0115355
 Standard basis: CC-pVQZ (5D, 7F)
 There are    22 symmetry adapted basis functions of AG  symmetry.
 There are     7 symmetry adapted basis functions of B1G symmetry.
 There are    13 symmetry adapted basis functions of B2G symmetry.
 There are    13 symmetry adapted basis functions of B3G symmetry.
 There are     7 symmetry adapted basis functions of AU  symmetry.
 There are    22 symmetry adapted basis functions of B1U symmetry.
 There are    13 symmetry adapted basis functions of B2U symmetry.
 There are    13 symmetry adapted basis functions of B3U symmetry.
 Integral buffers will be    131072 words long.
 Raffenetti 1 integral format.
 Two-electron integral symmetry is turned on.
   110 basis functions,   184 primitive gaussians,   140 cartesian basis functions
    10 alpha electrons       10 beta electrons
       nuclear repulsion energy        18.2474899414 Hartrees.
 NAtoms=    2 NActive=    2 NUniq=    1 SFac= 3.00D+00 NAtFMM=   80 NAOKFM=F Big=F
 One-electron integrals computed using PRISM.
 NBasis=   110 RedAO= T  NBF=    22     7    13    13     7    22    13    13
 NBsUse=   110 1.00D-06 NBFU=    22     7    13    13     7    22    13    13
 Initial guess read from the read-write file:
 Initial guess orbital symmetries:
       Occupied  (SGU) (SGG) (SGG) (SGU) (SGG) (PIU) (PIU) (PIG)
                 (PIG) (SGU)
       Virtual   (SGG) (PIU) (PIU) (PIG) (PIG) (SGU) (SGG) (SGU)
                 (SGG) (PIU) (PIU) (DLTG) (DLTG) (DLTU) (DLTU)
                 (PIG) (PIG) (SGU) (SGG) (PIU) (PIU) (PIG) (PIG)
                 (SGU) (SGG) (SGU) (DLTG) (DLTG) (PHIU) (PHIU)
                 (PHIG) (PHIG) (DLTU) (DLTU) (PIU) (PIU) (PIG)
                 (PIG) (SGG) (SGU) (SGG) (PIU) (PIU) (DLTG) (DLTG)
                 (DLTU) (DLTU) (PIG) (PIG) (SGU) (?A) (?A) (?B)
                 (?B) (PHIU) (PHIU) (PHIG) (PHIG) (DLTG) (DLTG)
                 (DLTU) (DLTU) (PIU) (PIU) (PIG) (PIG) (SGG) (SGU)
                 (SGG) (PIU) (PIU) (PIG) (PIG) (SGU) (PHIU) (PHIU)
                 (PHIG) (PHIG) (DLTG) (DLTG) (DLTU) (DLTU) (PIU)
                 (PIU) (PIG) (PIG) (SGG) (SGU) (SGG) (PIU) (PIU)
                 (DLTG) (DLTG) (DLTU) (DLTU) (PIG) (PIG) (SGU)
                 (SGG) (SGU)
 Harris functional with IExCor=  205 diagonalized for initial guess.
 ExpMin= 2.66D-01 ExpMax= 9.99D+04 ExpMxC= 9.59D+02 IAcc=1 IRadAn=         1 AccDes= 1.00D-06
 HarFok:  IExCor= 205 AccDes= 1.00D-06 IRadAn=         1 IDoV=1
 ScaDFX=  1.000000  1.000000  1.000000  1.000000
 Requested convergence on RMS density matrix=1.00D-08 within 128 cycles.
 Requested convergence on MAX density matrix=1.00D-06.
 Requested convergence on             energy=1.00D-06.
 No special actions if energy rises.
 Keep R1 integrals in memory in canonical form, NReq=    54711408.
 SCF Done:  E(RHF) =  -257.086787690     A.U. after    5 cycles
             Convg  =    0.4050D-08             -V/T =  2.0000
             S**2   =   0.0000
 ExpMin= 2.66D-01 ExpMax= 9.99D+04 ExpMxC= 9.59D+02 IAcc=1 IRadAn=         1 AccDes= 1.00D-06
 HarFok:  IExCor= 205 AccDes= 1.00D-06 IRadAn=         1 IDoV=1
 ScaDFX=  1.000000  1.000000  1.000000  1.000000
 Range of M.O.s used for correlation:     3   110
 NBasis=   110 NAE=    10 NBE=    10 NFC=     2 NFV=     0
 NROrb=    108 NOA=     8 NOB=     8 NVA=   100 NVB=   100
 Estimate disk for full transformation   108933730 words.
 Spin components of T(2) and E(2):
     alpha-alpha T2 =       0.9683207016D-02 E2=     -0.7382538947D-01
     alpha-beta  T2 =       0.5237258731D-01 E2=     -0.4396805684D+00
     beta-beta   T2 =       0.9683207016D-02 E2=     -0.7382538947D-01
 ANorm=    0.1035248280D+01
 E2=       -0.5873313473D+00 EUMP2=       -0.25767411903775D+03
 Iterations=  50 Convergence= 0.100D-04
 Iteration Nr.   1
 **********************
 MP4(R+Q)=  0.47219080D-02
 E3=       -0.54243639D-03        EUMP3=      -0.25767466147D+03
 E4(DQ)=   -0.17411800D-03        UMP4(DQ)=   -0.25767483559D+03
 E4(SDQ)=  -0.24358338D-02        UMP4(SDQ)=  -0.25767709731D+03
 DE(Corr)= -0.58308115     E(CORR)=     -257.66986884    
 NORM(A)=   0.10342140D+01
 Iteration Nr.   2
 **********************
 DE(Corr)= -0.58916799     E(CORR)=     -257.67595568     Delta=-6.09D-03
 NORM(A)=   0.10354709D+01
 Iteration Nr.   3
 **********************
 DE(Corr)= -0.58930977     E(CORR)=     -257.67609746     Delta=-1.42D-04
 NORM(A)=   0.10356049D+01
 Iteration Nr.   4
 **********************
 DE(Corr)= -0.58953088     E(CORR)=     -257.67631858     Delta=-2.21D-04
 NORM(A)=   0.10356350D+01
 Iteration Nr.   5
 **********************
 DE(Corr)= -0.58954287     E(CORR)=     -257.67633056     Delta=-1.20D-05
 NORM(A)=   0.10356367D+01
 Iteration Nr.   6
 **********************
 DE(Corr)= -0.58954290     E(CORR)=     -257.67633059     Delta=-3.34D-08
 NORM(A)=   0.10356366D+01
 T1 Diagnostic =     0.00549779
 Largest amplitude= 1.59D-02
 Time for triples=       28.44 seconds.
 T4(CCSD)= -0.11486944D-01
 T5(CCSD)=  0.38837566D-03
 CCSD(T)= -0.25768742916D+03
 Variable Step   Value    
 -------- ---- -----------
     1       4    5.669178
 ------------------------------------------------------------------------
                         Z-MATRIX (ANGSTROMS AND DEGREES)
 CD Cent Atom  N1     Length/X     N2    Alpha/Y     N3     Beta/Z      J
 ------------------------------------------------------------------------
   1   1  Ne
   2   2  Ne    1   3.000000(  1)
 ------------------------------------------------------------------------
                         Z-Matrix orientation:                         
 ---------------------------------------------------------------------
 Center     Atomic     Atomic              Coordinates (Angstroms)
 Number     Number      Type              X           Y           Z
 ---------------------------------------------------------------------
    1         10             0        0.000000    0.000000    0.000000
    2         10             0        0.000000    0.000000    3.000000
 ---------------------------------------------------------------------
 Stoichiometry    Ne2
 Framework group  D*H[C*(Ne.Ne)]
 Deg. of freedom     1
 Full point group                 D*H
 Largest Abelian subgroup         D2H     NOp   8
 Largest concise Abelian subgroup C2      NOp   2
                         Standard orientation:                         
 ---------------------------------------------------------------------
 Center     Atomic     Atomic              Coordinates (Angstroms)
 Number     Number      Type              X           Y           Z
 ---------------------------------------------------------------------
    1         10             0        0.000000    0.000000    1.500000
    2         10             0        0.000000    0.000000   -1.500000
 ---------------------------------------------------------------------
 Rotational constants (GHZ):      0.0000000      5.6174459      5.6174459
 Standard basis: CC-pVQZ (5D, 7F)
 There are    22 symmetry adapted basis functions of AG  symmetry.
 There are     7 symmetry adapted basis functions of B1G symmetry.
 There are    13 symmetry adapted basis functions of B2G symmetry.
 There are    13 symmetry adapted basis functions of B3G symmetry.
 There are     7 symmetry adapted basis functions of AU  symmetry.
 There are    22 symmetry adapted basis functions of B1U symmetry.
 There are    13 symmetry adapted basis functions of B2U symmetry.
 There are    13 symmetry adapted basis functions of B3U symmetry.
 Integral buffers will be    131072 words long.
 Raffenetti 1 integral format.
 Two-electron integral symmetry is turned on.
   110 basis functions,   184 primitive gaussians,   140 cartesian basis functions
    10 alpha electrons       10 beta electrons
       nuclear repulsion energy        17.6392402767 Hartrees.
 NAtoms=    2 NActive=    2 NUniq=    1 SFac= 3.00D+00 NAtFMM=   80 NAOKFM=F Big=F
 One-electron integrals computed using PRISM.
 NBasis=   110 RedAO= T  NBF=    22     7    13    13     7    22    13    13
 NBsUse=   110 1.00D-06 NBFU=    22     7    13    13     7    22    13    13
 Initial guess read from the read-write file:
 Initial guess orbital symmetries:
       Occupied  (SGU) (SGG) (SGG) (SGU) (SGG) (PIU) (PIU) (PIG)
                 (PIG) (SGU)
       Virtual   (SGG) (PIU) (PIU) (PIG) (PIG) (SGU) (SGG) (SGU)
                 (SGG) (PIU) (PIU) (DLTG) (DLTG) (DLTU) (DLTU)
                 (PIG) (PIG) (SGU) (SGG) (PIU) (PIU) (PIG) (PIG)
                 (SGU) (SGG) (SGU) (PHIU) (PHIU) (PHIG) (PHIG)
                 (DLTG) (DLTG) (DLTU) (DLTU) (PIU) (PIU) (PIG)
                 (PIG) (SGG) (SGU) (SGG) (PIU) (PIU) (DLTG) (DLTG)
                 (DLTU) (DLTU) (PIG) (PIG) (SGU) (?A) (?A) (?B)
                 (?B) (PHIU) (PHIU) (PHIG) (PHIG) (DLTG) (DLTG)
                 (DLTU) (DLTU) (PIU) (PIU) (PIG) (PIG) (SGG) (SGU)
                 (SGG) (PIU) (PIU) (PIG) (PIG) (SGU) (PHIU) (PHIU)
                 (PHIG) (PHIG) (DLTG) (DLTG) (DLTU) (DLTU) (PIU)
                 (PIU) (PIG) (PIG) (SGG) (SGU) (SGG) (PIU) (PIU)
                 (DLTG) (DLTG) (DLTU) (DLTU) (PIG) (PIG) (SGU)
                 (SGG) (SGU)
 Harris functional with IExCor=  205 diagonalized for initial guess.
 ExpMin= 2.66D-01 ExpMax= 9.99D+04 ExpMxC= 9.59D+02 IAcc=1 IRadAn=         1 AccDes= 1.00D-06
 HarFok:  IExCor= 205 AccDes= 1.00D-06 IRadAn=         1 IDoV=1
 ScaDFX=  1.000000  1.000000  1.000000  1.000000
 Requested convergence on RMS density matrix=1.00D-08 within 128 cycles.
 Requested convergence on MAX density matrix=1.00D-06.
 Requested convergence on             energy=1.00D-06.
 No special actions if energy rises.
 Keep R1 integrals in memory in canonical form, NReq=    54711408.
 SCF Done:  E(RHF) =  -257.086867304     A.U. after    6 cycles
             Convg  =    0.7931D-09             -V/T =  2.0000
             S**2   =   0.0000
 ExpMin= 2.66D-01 ExpMax= 9.99D+04 ExpMxC= 9.59D+02 IAcc=1 IRadAn=         1 AccDes= 1.00D-06
 HarFok:  IExCor= 205 AccDes= 1.00D-06 IRadAn=         1 IDoV=1
 ScaDFX=  1.000000  1.000000  1.000000  1.000000
 Range of M.O.s used for correlation:     3   110
 NBasis=   110 NAE=    10 NBE=    10 NFC=     2 NFV=     0
 NROrb=    108 NOA=     8 NOB=     8 NVA=   100 NVB=   100
 Estimate disk for full transformation   106506850 words.
 Spin components of T(2) and E(2):
     alpha-alpha T2 =       0.9682320901D-02 E2=     -0.7381796865D-01
     alpha-beta  T2 =       0.5237373278D-01 E2=     -0.4396686383D+00
     beta-beta   T2 =       0.9682320901D-02 E2=     -0.7381796865D-01
 ANorm=    0.1035247977D+01
 E2=       -0.5873045756D+00 EUMP2=       -0.25767417187987D+03
 Iterations=  50 Convergence= 0.100D-04
 Iteration Nr.   1
 **********************
 MP4(R+Q)=  0.47188036D-02
 E3=       -0.53847067D-03        EUMP3=      -0.25767471035D+03
 E4(DQ)=   -0.17746269D-03        UMP4(DQ)=   -0.25767488781D+03
 E4(SDQ)=  -0.24377439D-02        UMP4(SDQ)=  -0.25767714809D+03
 DE(Corr)= -0.58305348     E(CORR)=     -257.66992079    
 NORM(A)=   0.10342126D+01
 Iteration Nr.   2
 **********************
 DE(Corr)= -0.58913865     E(CORR)=     -257.67600596     Delta=-6.09D-03
 NORM(A)=   0.10354689D+01
 Iteration Nr.   3
 **********************
 DE(Corr)= -0.58928095     E(CORR)=     -257.67614826     Delta=-1.42D-04
 NORM(A)=   0.10356026D+01
 Iteration Nr.   4
 **********************
 DE(Corr)= -0.58950171     E(CORR)=     -257.67636901     Delta=-2.21D-04
 NORM(A)=   0.10356325D+01
 Iteration Nr.   5
 **********************
 DE(Corr)= -0.58951367     E(CORR)=     -257.67638097     Delta=-1.20D-05
 NORM(A)=   0.10356342D+01
 Iteration Nr.   6
 **********************
 DE(Corr)= -0.58951369     E(CORR)=     -257.67638100     Delta=-2.80D-08
 NORM(A)=   0.10356341D+01
 T1 Diagnostic =     0.00549033
 Largest amplitude= 1.58D-02
 Time for triples=       28.68 seconds.
 T4(CCSD)= -0.11483113D-01
 T5(CCSD)=  0.38817541D-03
 CCSD(T)= -0.25768747594D+03
 Variable Step   Value    
 -------- ---- -----------
     1       5    5.858151
 ------------------------------------------------------------------------
                         Z-MATRIX (ANGSTROMS AND DEGREES)
 CD Cent Atom  N1     Length/X     N2    Alpha/Y     N3     Beta/Z      J
 ------------------------------------------------------------------------
   1   1  Ne
   2   2  Ne    1   3.100000(  1)
 ------------------------------------------------------------------------
                         Z-Matrix orientation:                         
 ---------------------------------------------------------------------
 Center     Atomic     Atomic              Coordinates (Angstroms)
 Number     Number      Type              X           Y           Z
 ---------------------------------------------------------------------
    1         10             0        0.000000    0.000000    0.000000
    2         10             0        0.000000    0.000000    3.100000
 ---------------------------------------------------------------------
 Stoichiometry    Ne2
 Framework group  D*H[C*(Ne.Ne)]
 Deg. of freedom     1
 Full point group                 D*H
 Largest Abelian subgroup         D2H     NOp   8
 Largest concise Abelian subgroup C2      NOp   2
                         Standard orientation:                         
 ---------------------------------------------------------------------
 Center     Atomic     Atomic              Coordinates (Angstroms)
 Number     Number      Type              X           Y           Z
 ---------------------------------------------------------------------
    1         10             0        0.000000    0.000000    1.550000
    2         10             0        0.000000    0.000000   -1.550000
 ---------------------------------------------------------------------
 Rotational constants (GHZ):      0.0000000      5.2608755      5.2608755
 Standard basis: CC-pVQZ (5D, 7F)
 There are    22 symmetry adapted basis functions of AG  symmetry.
 There are     7 symmetry adapted basis functions of B1G symmetry.
 There are    13 symmetry adapted basis functions of B2G symmetry.
 There are    13 symmetry adapted basis functions of B3G symmetry.
 There are     7 symmetry adapted basis functions of AU  symmetry.
 There are    22 symmetry adapted basis functions of B1U symmetry.
 There are    13 symmetry adapted basis functions of B2U symmetry.
 There are    13 symmetry adapted basis functions of B3U symmetry.
 Integral buffers will be    131072 words long.
 Raffenetti 1 integral format.
 Two-electron integral symmetry is turned on.
   110 basis functions,   184 primitive gaussians,   140 cartesian basis functions
    10 alpha electrons       10 beta electrons
       nuclear repulsion energy        17.0702325258 Hartrees.
 NAtoms=    2 NActive=    2 NUniq=    1 SFac= 3.00D+00 NAtFMM=   80 NAOKFM=F Big=F
 One-electron integrals computed using PRISM.
 NBasis=   110 RedAO= T  NBF=    22     7    13    13     7    22    13    13
 NBsUse=   110 1.00D-06 NBFU=    22     7    13    13     7    22    13    13
 Initial guess read from the read-write file:
 Initial guess orbital symmetries:
       Occupied  (SGU) (SGG) (SGG) (SGU) (SGG) (PIU) (PIU) (PIG)
                 (PIG) (SGU)
       Virtual   (SGG) (PIU) (PIU) (PIG) (PIG) (SGU) (SGG) (SGU)
                 (SGG) (PIU) (PIU) (DLTG) (DLTG) (DLTU) (DLTU)
                 (PIG) (PIG) (SGU) (SGG) (PIU) (PIU) (PIG) (PIG)
                 (SGU) (SGG) (SGU) (PHIU) (PHIU) (PHIG) (PHIG)
                 (DLTG) (DLTG) (DLTU) (DLTU) (PIU) (PIU) (PIG)
                 (PIG) (SGG) (SGU) (SGG) (PIU) (PIU) (DLTG) (DLTG)
                 (DLTU) (DLTU) (PIG) (PIG) (SGU) (?A) (?A) (?B)
                 (?B) (PHIG) (PHIG) (PHIU) (PHIU) (DLTG) (DLTG)
                 (DLTU) (DLTU) (PIU) (PIU) (PIG) (PIG) (SGG) (SGU)
                 (SGG) (PIU) (PIU) (PIG) (PIG) (SGU) (PHIU) (PHIU)
                 (PHIG) (PHIG) (DLTG) (DLTG) (DLTU) (DLTU) (PIU)
                 (PIU) (PIG) (PIG) (SGG) (SGU) (SGG) (PIU) (PIU)
                 (DLTG) (DLTG) (DLTU) (DLTU) (PIG) (PIG) (SGU)
                 (SGG) (SGU)
 Harris functional with IExCor=  205 diagonalized for initial guess.
 ExpMin= 2.66D-01 ExpMax= 9.99D+04 ExpMxC= 9.59D+02 IAcc=1 IRadAn=         1 AccDes= 1.00D-06
 HarFok:  IExCor= 205 AccDes= 1.00D-06 IRadAn=         1 IDoV=1
 ScaDFX=  1.000000  1.000000  1.000000  1.000000
 Requested convergence on RMS density matrix=1.00D-08 within 128 cycles.
 Requested convergence on MAX density matrix=1.00D-06.
 Requested convergence on             energy=1.00D-06.
 No special actions if energy rises.
 Keep R1 integrals in memory in canonical form, NReq=    54711408.
 SCF Done:  E(RHF) =  -257.086914793     A.U. after    5 cycles
             Convg  =    0.9011D-08             -V/T =  2.0000
             S**2   =   0.0000
 ExpMin= 2.66D-01 ExpMax= 9.99D+04 ExpMxC= 9.59D+02 IAcc=1 IRadAn=         1 AccDes= 1.00D-06
 HarFok:  IExCor= 205 AccDes= 1.00D-06 IRadAn=         1 IDoV=1
 ScaDFX=  1.000000  1.000000  1.000000  1.000000
 Range of M.O.s used for correlation:     3   110
 NBasis=   110 NAE=    10 NBE=    10 NFC=     2 NFV=     0
 NROrb=    108 NOA=     8 NOB=     8 NVA=   100 NVB=   100
 Estimate disk for full transformation   106506850 words.
 Spin components of T(2) and E(2):
     alpha-alpha T2 =       0.9681292812D-02 E2=     -0.7381162111D-01
     alpha-beta  T2 =       0.5237313170D-01 E2=     -0.4396571112D+00
     beta-beta   T2 =       0.9681292812D-02 E2=     -0.7381162111D-01
 ANorm=    0.1035246694D+01
 E2=       -0.5872803534D+00 EUMP2=       -0.25767419514664D+03
 Iterations=  50 Convergence= 0.100D-04
 Iteration Nr.   1
 **********************
 MP4(R+Q)=  0.47164198D-02
 E3=       -0.53703478D-03        EUMP3=      -0.25767473218D+03
 E4(DQ)=   -0.17974465D-03        UMP4(DQ)=   -0.25767491193D+03
 E4(SDQ)=  -0.24383676D-02        UMP4(SDQ)=  -0.25767717055D+03
 DE(Corr)= -0.58303022     E(CORR)=     -257.66994501    
 NORM(A)=   0.10342107D+01
 Iteration Nr.   2
 **********************
 DE(Corr)= -0.58911340     E(CORR)=     -257.67602819     Delta=-6.08D-03
 NORM(A)=   0.10354664D+01
 Iteration Nr.   3
 **********************
 DE(Corr)= -0.58925630     E(CORR)=     -257.67617109     Delta=-1.43D-04
 NORM(A)=   0.10355996D+01
 Iteration Nr.   4
 **********************
 DE(Corr)= -0.58947670     E(CORR)=     -257.67639149     Delta=-2.20D-04
 NORM(A)=   0.10356295D+01
 Iteration Nr.   5
 **********************
 DE(Corr)= -0.58948862     E(CORR)=     -257.67640342     Delta=-1.19D-05
 NORM(A)=   0.10356312D+01
 Iteration Nr.   6
 **********************
 DE(Corr)= -0.58948864     E(CORR)=     -257.67640344     Delta=-2.23D-08
 NORM(A)=   0.10356310D+01
 T1 Diagnostic =     0.00548271
 Largest amplitude= 1.56D-02
 Time for triples=       28.97 seconds.
 T4(CCSD)= -0.11479597D-01
 T5(CCSD)=  0.38786943D-03
 CCSD(T)= -0.25768749517D+03
 Variable Step   Value    
 -------- ---- -----------
     1       6    6.047124
 ------------------------------------------------------------------------
                         Z-MATRIX (ANGSTROMS AND DEGREES)
 CD Cent Atom  N1     Length/X     N2    Alpha/Y     N3     Beta/Z      J
 ------------------------------------------------------------------------
   1   1  Ne
   2   2  Ne    1   3.200000(  1)
 ------------------------------------------------------------------------
                         Z-Matrix orientation:                         
 ---------------------------------------------------------------------
 Center     Atomic     Atomic              Coordinates (Angstroms)
 Number     Number      Type              X           Y           Z
 ---------------------------------------------------------------------
    1         10             0        0.000000    0.000000    0.000000
    2         10             0        0.000000    0.000000    3.200000
 ---------------------------------------------------------------------
 Stoichiometry    Ne2
 Framework group  D*H[C*(Ne.Ne)]
 Deg. of freedom     1
 Full point group                 D*H
 Largest Abelian subgroup         D2H     NOp   8
 Largest concise Abelian subgroup C2      NOp   2
                         Standard orientation:                         
 ---------------------------------------------------------------------
 Center     Atomic     Atomic              Coordinates (Angstroms)
 Number     Number      Type              X           Y           Z
 ---------------------------------------------------------------------
    1         10             0        0.000000    0.000000    1.600000
    2         10             0        0.000000    0.000000   -1.600000
 ---------------------------------------------------------------------
 Rotational constants (GHZ):      0.0000000      4.9372083      4.9372083
 Standard basis: CC-pVQZ (5D, 7F)
 There are    22 symmetry adapted basis functions of AG  symmetry.
 There are     7 symmetry adapted basis functions of B1G symmetry.
 There are    13 symmetry adapted basis functions of B2G symmetry.
 There are    13 symmetry adapted basis functions of B3G symmetry.
 There are     7 symmetry adapted basis functions of AU  symmetry.
 There are    22 symmetry adapted basis functions of B1U symmetry.
 There are    13 symmetry adapted basis functions of B2U symmetry.
 There are    13 symmetry adapted basis functions of B3U symmetry.
 Integral buffers will be    131072 words long.
 Raffenetti 1 integral format.
 Two-electron integral symmetry is turned on.
   110 basis functions,   184 primitive gaussians,   140 cartesian basis functions
    10 alpha electrons       10 beta electrons
       nuclear repulsion energy        16.5367877594 Hartrees.
 NAtoms=    2 NActive=    2 NUniq=    1 SFac= 3.00D+00 NAtFMM=   80 NAOKFM=F Big=F
 One-electron integrals computed using PRISM.
 NBasis=   110 RedAO= T  NBF=    22     7    13    13     7    22    13    13
 NBsUse=   110 1.00D-06 NBFU=    22     7    13    13     7    22    13    13
 Initial guess read from the read-write file:
 Initial guess orbital symmetries:
       Occupied  (SGU) (SGG) (SGG) (SGU) (SGG) (PIU) (PIU) (PIG)
                 (PIG) (SGU)
       Virtual   (SGG) (PIU) (PIU) (PIG) (PIG) (SGU) (SGG) (SGU)
                 (SGG) (PIU) (PIU) (DLTG) (DLTG) (DLTU) (DLTU)
                 (PIG) (PIG) (SGU) (SGG) (PIU) (PIU) (PIG) (PIG)
                 (SGU) (SGG) (SGU) (PHIU) (PHIU) (PHIG) (PHIG)
                 (DLTG) (DLTG) (DLTU) (DLTU) (PIU) (PIU) (PIG)
                 (PIG) (SGG) (SGU) (SGG) (PIU) (PIU) (DLTG) (DLTG)
                 (DLTU) (DLTU) (PIG) (PIG) (SGU) (?A) (?A) (?B)
                 (?B) (PHIG) (PHIG) (PHIU) (PHIU) (DLTG) (DLTG)
                 (DLTU) (DLTU) (PIU) (PIU) (PIG) (PIG) (SGG) (SGU)
                 (SGG) (PIU) (PIU) (PIG) (PIG) (SGU) (PHIU) (PHIU)
                 (PHIG) (PHIG) (DLTG) (DLTG) (DLTU) (DLTU) (PIU)
                 (PIU) (PIG) (PIG) (SGG) (SGU) (SGG) (PIU) (PIU)
                 (DLTG) (DLTG) (DLTU) (DLTU) (PIG) (PIG) (SGU)
                 (SGG) (SGU)
 Harris functional with IExCor=  205 diagonalized for initial guess.
 ExpMin= 2.66D-01 ExpMax= 9.99D+04 ExpMxC= 9.59D+02 IAcc=1 IRadAn=         1 AccDes= 1.00D-06
 HarFok:  IExCor= 205 AccDes= 1.00D-06 IRadAn=         1 IDoV=1
 ScaDFX=  1.000000  1.000000  1.000000  1.000000
 Requested convergence on RMS density matrix=1.00D-08 within 128 cycles.
 Requested convergence on MAX density matrix=1.00D-06.
 Requested convergence on             energy=1.00D-06.
 No special actions if energy rises.
 Keep R1 integrals in memory in canonical form, NReq=    54711408.
 SCF Done:  E(RHF) =  -257.086941389     A.U. after    5 cycles
             Convg  =    0.6252D-08             -V/T =  2.0000
             S**2   =   0.0000
 ExpMin= 2.66D-01 ExpMax= 9.99D+04 ExpMxC= 9.59D+02 IAcc=1 IRadAn=         1 AccDes= 1.00D-06
 HarFok:  IExCor= 205 AccDes= 1.00D-06 IRadAn=         1 IDoV=1
 ScaDFX=  1.000000  1.000000  1.000000  1.000000
 Range of M.O.s used for correlation:     3   110
 NBasis=   110 NAE=    10 NBE=    10 NFC=     2 NFV=     0
 NROrb=    108 NOA=     8 NOB=     8 NVA=   100 NVB=   100
 Estimate disk for full transformation   103706210 words.
 Spin components of T(2) and E(2):
     alpha-alpha T2 =       0.9680207693D-02 E2=     -0.7380617364D-01
     alpha-beta  T2 =       0.5237142777D-01 E2=     -0.4396462643D+00
     beta-beta   T2 =       0.9680207693D-02 E2=     -0.7380617364D-01
 ANorm=    0.1035244823D+01
 E2=       -0.5872586116D+00 EUMP2=       -0.25767420000028D+03
 Iterations=  50 Convergence= 0.100D-04
 Iteration Nr.   1
 **********************
 MP4(R+Q)=  0.47145868D-02
 E3=       -0.53732538D-03        EUMP3=      -0.25767473733D+03
 E4(DQ)=   -0.18125844D-03        UMP4(DQ)=   -0.25767491858D+03
 E4(SDQ)=  -0.24381627D-02        UMP4(SDQ)=  -0.25767717549D+03
 DE(Corr)= -0.58301064     E(CORR)=     -257.66995203    
 NORM(A)=   0.10342085D+01
 Iteration Nr.   2
 **********************
 DE(Corr)= -0.58909172     E(CORR)=     -257.67603311     Delta=-6.08D-03
 NORM(A)=   0.10354635D+01
 Iteration Nr.   3
 **********************
 DE(Corr)= -0.58923525     E(CORR)=     -257.67617664     Delta=-1.44D-04
 NORM(A)=   0.10355965D+01
 Iteration Nr.   4
 **********************
 DE(Corr)= -0.58945530     E(CORR)=     -257.67639669     Delta=-2.20D-04
 NORM(A)=   0.10356262D+01
 Iteration Nr.   5
 **********************
 DE(Corr)= -0.58946720     E(CORR)=     -257.67640859     Delta=-1.19D-05
 NORM(A)=   0.10356279D+01
 Iteration Nr.   6
 **********************
 DE(Corr)= -0.58946721     E(CORR)=     -257.67640860     Delta=-1.68D-08
 NORM(A)=   0.10356277D+01
 T1 Diagnostic =     0.00547550
 Largest amplitude= 1.55D-02
 Time for triples=       28.51 seconds.
 T4(CCSD)= -0.11476423D-01
 T5(CCSD)=  0.38751468D-03
 CCSD(T)= -0.25768749751D+03
 Variable Step   Value    
 -------- ---- -----------
     1       7    6.236096
 ------------------------------------------------------------------------
                         Z-MATRIX (ANGSTROMS AND DEGREES)
 CD Cent Atom  N1     Length/X     N2    Alpha/Y     N3     Beta/Z      J
 ------------------------------------------------------------------------
   1   1  Ne
   2   2  Ne    1   3.300000(  1)
 ------------------------------------------------------------------------
                         Z-Matrix orientation:                         
 ---------------------------------------------------------------------
 Center     Atomic     Atomic              Coordinates (Angstroms)
 Number     Number      Type              X           Y           Z
 ---------------------------------------------------------------------
    1         10             0        0.000000    0.000000    0.000000
    2         10             0        0.000000    0.000000    3.300000
 ---------------------------------------------------------------------
 Stoichiometry    Ne2
 Framework group  D*H[C*(Ne.Ne)]
 Deg. of freedom     1
 Full point group                 D*H
 Largest Abelian subgroup         D2H     NOp   8
 Largest concise Abelian subgroup C2      NOp   2
                         Standard orientation:                         
 ---------------------------------------------------------------------
 Center     Atomic     Atomic              Coordinates (Angstroms)
 Number     Number      Type              X           Y           Z
 ---------------------------------------------------------------------
    1         10             0        0.000000    0.000000    1.650000
    2         10             0        0.000000    0.000000   -1.650000
 ---------------------------------------------------------------------
 Rotational constants (GHZ):      0.0000000      4.6425173      4.6425173
 Standard basis: CC-pVQZ (5D, 7F)
 There are    22 symmetry adapted basis functions of AG  symmetry.
 There are     7 symmetry adapted basis functions of B1G symmetry.
 There are    13 symmetry adapted basis functions of B2G symmetry.
 There are    13 symmetry adapted basis functions of B3G symmetry.
 There are     7 symmetry adapted basis functions of AU  symmetry.
 There are    22 symmetry adapted basis functions of B1U symmetry.
 There are    13 symmetry adapted basis functions of B2U symmetry.
 There are    13 symmetry adapted basis functions of B3U symmetry.
 Integral buffers will be    131072 words long.
 Raffenetti 1 integral format.
 Two-electron integral symmetry is turned on.
   110 basis functions,   184 primitive gaussians,   140 cartesian basis functions
    10 alpha electrons       10 beta electrons
       nuclear repulsion energy        16.0356729788 Hartrees.
 NAtoms=    2 NActive=    2 NUniq=    1 SFac= 3.00D+00 NAtFMM=   80 NAOKFM=F Big=F
 One-electron integrals computed using PRISM.
 NBasis=   110 RedAO= T  NBF=    22     7    13    13     7    22    13    13
 NBsUse=   110 1.00D-06 NBFU=    22     7    13    13     7    22    13    13
 Initial guess read from the read-write file:
 Initial guess orbital symmetries:
       Occupied  (SGU) (SGG) (SGG) (SGU) (SGG) (PIU) (PIU) (PIG)
                 (PIG) (SGU)
       Virtual   (SGG) (PIU) (PIU) (PIG) (PIG) (SGU) (SGG) (SGU)
                 (SGG) (PIU) (PIU) (DLTG) (DLTG) (DLTU) (DLTU)
                 (PIG) (PIG) (SGU) (SGG) (PIU) (PIU) (PIG) (PIG)
                 (SGU) (SGG) (SGU) (PHIU) (PHIU) (PHIG) (PHIG)
                 (DLTG) (DLTG) (DLTU) (DLTU) (PIU) (PIU) (PIG)
                 (PIG) (SGG) (SGU) (SGG) (PIU) (PIU) (DLTG) (DLTG)
                 (DLTU) (DLTU) (PIG) (PIG) (SGU) (PIU) (PIU) (PIG)
                 (PIG) (DLTG) (DLTG) (SGG) (DLTU) (DLTU) (SGU)
                 (PHIG) (PHIG) (PHIU) (PHIU) (?A) (?A) (?B) (?B)
                 (SGG) (PIU) (PIU) (PIG) (PIG) (SGU) (DLTG) (DLTG)
                 (DLTU) (DLTU) (PIU) (PIU) (PIG) (PIG) (PHIU) (PHIU)
                 (PHIG) (PHIG) (SGG) (SGU) (SGG) (PIU) (PIU) (DLTG)
                 (DLTG) (DLTU) (DLTU) (PIG) (PIG) (SGU) (SGG) (SGU)
 Harris functional with IExCor=  205 diagonalized for initial guess.
 ExpMin= 2.66D-01 ExpMax= 9.99D+04 ExpMxC= 9.59D+02 IAcc=1 IRadAn=         1 AccDes= 1.00D-06
 HarFok:  IExCor= 205 AccDes= 1.00D-06 IRadAn=         1 IDoV=1
 ScaDFX=  1.000000  1.000000  1.000000  1.000000
 Requested convergence on RMS density matrix=1.00D-08 within 128 cycles.
 Requested convergence on MAX density matrix=1.00D-06.
 Requested convergence on             energy=1.00D-06.
 No special actions if energy rises.
 Keep R1 integrals in memory in canonical form, NReq=    54711408.
 SCF Done:  E(RHF) =  -257.086954566     A.U. after    5 cycles
             Convg  =    0.4734D-08             -V/T =  2.0000
             S**2   =   0.0000
 ExpMin= 2.66D-01 ExpMax= 9.99D+04 ExpMxC= 9.59D+02 IAcc=1 IRadAn=         1 AccDes= 1.00D-06
 HarFok:  IExCor= 205 AccDes= 1.00D-06 IRadAn=         1 IDoV=1
 ScaDFX=  1.000000  1.000000  1.000000  1.000000
 Range of M.O.s used for correlation:     3   110
 NBasis=   110 NAE=    10 NBE=    10 NFC=     2 NFV=     0
 NROrb=    108 NOA=     8 NOB=     8 NVA=   100 NVB=   100
 Estimate disk for full transformation   103143010 words.
 Spin components of T(2) and E(2):
     alpha-alpha T2 =       0.9679140593D-02 E2=     -0.7380151739D-01
     alpha-beta  T2 =       0.5236914505D-01 E2=     -0.4396363447D+00
     beta-beta   T2 =       0.9679140593D-02 E2=     -0.7380151739D-01
 ANorm=    0.1035242690D+01
 E2=       -0.5872393795D+00 EUMP2=       -0.25767419394537D+03
 Iterations=  50 Convergence= 0.100D-04
 Iteration Nr.   1
 **********************
 MP4(R+Q)=  0.47131771D-02
 E3=       -0.53865713D-03        EUMP3=      -0.25767473260D+03
 E4(DQ)=   -0.18223531D-03        UMP4(DQ)=   -0.25767491484D+03
 E4(SDQ)=  -0.24374958D-02        UMP4(SDQ)=  -0.25767717010D+03
 DE(Corr)= -0.58299421     E(CORR)=     -257.66994877    
 NORM(A)=   0.10342062D+01
 Iteration Nr.   2
 **********************
 DE(Corr)= -0.58907325     E(CORR)=     -257.67602781     Delta=-6.08D-03
 NORM(A)=   0.10354607D+01
 Iteration Nr.   3
 **********************
 DE(Corr)= -0.58921738     E(CORR)=     -257.67617194     Delta=-1.44D-04
 NORM(A)=   0.10355934D+01
 Iteration Nr.   4
 **********************
 DE(Corr)= -0.58943713     E(CORR)=     -257.67639170     Delta=-2.20D-04
 NORM(A)=   0.10356231D+01
 Iteration Nr.   5
 **********************
 DE(Corr)= -0.58944900     E(CORR)=     -257.67640356     Delta=-1.19D-05
 NORM(A)=   0.10356247D+01
 Iteration Nr.   6
 **********************
 DE(Corr)= -0.58944901     E(CORR)=     -257.67640357     Delta=-1.16D-08
 NORM(A)=   0.10356245D+01
 T1 Diagnostic =     0.00546910
 Largest amplitude= 1.54D-02
 Time for triples=       28.66 seconds.
 T4(CCSD)= -0.11473623D-01
 T5(CCSD)=  0.38715640D-03
 CCSD(T)= -0.25768749004D+03
 Variable Step   Value    
 -------- ---- -----------
     1       8    6.425069
 ------------------------------------------------------------------------
                         Z-MATRIX (ANGSTROMS AND DEGREES)
 CD Cent Atom  N1     Length/X     N2    Alpha/Y     N3     Beta/Z      J
 ------------------------------------------------------------------------
   1   1  Ne
   2   2  Ne    1   3.400000(  1)
 ------------------------------------------------------------------------
                         Z-Matrix orientation:                         
 ---------------------------------------------------------------------
 Center     Atomic     Atomic              Coordinates (Angstroms)
 Number     Number      Type              X           Y           Z
 ---------------------------------------------------------------------
    1         10             0        0.000000    0.000000    0.000000
    2         10             0        0.000000    0.000000    3.400000
 ---------------------------------------------------------------------
 Stoichiometry    Ne2
 Framework group  D*H[C*(Ne.Ne)]
 Deg. of freedom     1
 Full point group                 D*H
 Largest Abelian subgroup         D2H     NOp   8
 Largest concise Abelian subgroup C2      NOp   2
                         Standard orientation:                         
 ---------------------------------------------------------------------
 Center     Atomic     Atomic              Coordinates (Angstroms)
 Number     Number      Type              X           Y           Z
 ---------------------------------------------------------------------
    1         10             0        0.000000    0.000000    1.700000
    2         10             0        0.000000    0.000000   -1.700000
 ---------------------------------------------------------------------
 Rotational constants (GHZ):      0.0000000      4.3734441      4.3734441
 Standard basis: CC-pVQZ (5D, 7F)
 There are    22 symmetry adapted basis functions of AG  symmetry.
 There are     7 symmetry adapted basis functions of B1G symmetry.
 There are    13 symmetry adapted basis functions of B2G symmetry.
 There are    13 symmetry adapted basis functions of B3G symmetry.
 There are     7 symmetry adapted basis functions of AU  symmetry.
 There are    22 symmetry adapted basis functions of B1U symmetry.
 There are    13 symmetry adapted basis functions of B2U symmetry.
 There are    13 symmetry adapted basis functions of B3U symmetry.
 Integral buffers will be    131072 words long.
 Raffenetti 1 integral format.
 Two-electron integral symmetry is turned on.
   110 basis functions,   184 primitive gaussians,   140 cartesian basis functions
    10 alpha electrons       10 beta electrons
       nuclear repulsion energy        15.5640355382 Hartrees.
 NAtoms=    2 NActive=    2 NUniq=    1 SFac= 3.00D+00 NAtFMM=   80 NAOKFM=F Big=F
 One-electron integrals computed using PRISM.
 NBasis=   110 RedAO= T  NBF=    22     7    13    13     7    22    13    13
 NBsUse=   110 1.00D-06 NBFU=    22     7    13    13     7    22    13    13
 Initial guess read from the read-write file:
 Initial guess orbital symmetries:
       Occupied  (SGU) (SGG) (SGG) (SGU) (SGG) (PIU) (PIU) (PIG)
                 (PIG) (SGU)
       Virtual   (SGG) (PIU) (PIU) (PIG) (PIG) (SGU) (SGG) (SGU)
                 (SGG) (PIU) (PIU) (DLTG) (DLTG) (DLTU) (DLTU)
                 (PIG) (PIG) (SGU) (SGG) (PIU) (PIU) (PIG) (PIG)
                 (SGU) (SGG) (SGU) (DLTG) (DLTG) (DLTU) (DLTU)
                 (PHIU) (PHIU) (PHIG) (PHIG) (PIU) (PIU) (PIG)
                 (PIG) (SGG) (SGU) (SGG) (PIU) (PIU) (DLTG) (DLTG)
                 (DLTU) (DLTU) (PIG) (PIG) (SGU) (SGG) (PIU) (PIU)
                 (PIG) (PIG) (SGU) (DLTG) (DLTG) (DLTU) (DLTU)
                 (PHIG) (PHIG) (PHIU) (PHIU) (?A) (?A) (?B) (?B)
                 (SGG) (PIU) (PIU) (PIG) (PIG) (SGU) (PIU) (PIU)
                 (PIG) (PIG) (DLTG) (DLTG) (DLTU) (DLTU) (PHIU)
                 (PHIU) (PHIG) (PHIG) (SGG) (SGU) (SGG) (PIU) (PIU)
                 (DLTG) (DLTG) (DLTU) (DLTU) (PIG) (PIG) (SGU)
                 (SGG) (SGU)
 Harris functional with IExCor=  205 diagonalized for initial guess.
 ExpMin= 2.66D-01 ExpMax= 9.99D+04 ExpMxC= 9.59D+02 IAcc=1 IRadAn=         1 AccDes= 1.00D-06
 HarFok:  IExCor= 205 AccDes= 1.00D-06 IRadAn=         1 IDoV=1
 ScaDFX=  1.000000  1.000000  1.000000  1.000000
 Requested convergence on RMS density matrix=1.00D-08 within 128 cycles.
 Requested convergence on MAX density matrix=1.00D-06.
 Requested convergence on             energy=1.00D-06.
 No special actions if energy rises.
 Keep R1 integrals in memory in canonical form, NReq=    54711408.
 SCF Done:  E(RHF) =  -257.086959416     A.U. after    4 cycles
             Convg  =    0.9067D-08             -V/T =  2.0000
             S**2   =   0.0000
 ExpMin= 2.66D-01 ExpMax= 9.99D+04 ExpMxC= 9.59D+02 IAcc=1 IRadAn=         1 AccDes= 1.00D-06
 HarFok:  IExCor= 205 AccDes= 1.00D-06 IRadAn=         1 IDoV=1
 ScaDFX=  1.000000  1.000000  1.000000  1.000000
 Range of M.O.s used for correlation:     3   110
 NBasis=   110 NAE=    10 NBE=    10 NFC=     2 NFV=     0
 NROrb=    108 NOA=     8 NOB=     8 NVA=   100 NVB=   100
 Estimate disk for full transformation   102015586 words.
 Spin components of T(2) and E(2):
     alpha-alpha T2 =       0.9678149869D-02 E2=     -0.7379757502D-01
     alpha-beta  T2 =       0.5236668334D-01 E2=     -0.4396275355D+00
     beta-beta   T2 =       0.9678149869D-02 E2=     -0.7379757502D-01
 ANorm=    0.1035240544D+01
 E2=       -0.5872226855D+00 EUMP2=       -0.25767418210115D+03
 Iterations=  50 Convergence= 0.100D-04
 Iteration Nr.   1
 **********************
 MP4(R+Q)=  0.47120943D-02
 E3=       -0.54048765D-03        EUMP3=      -0.25767472259D+03
 E4(DQ)=   -0.18285179D-03        UMP4(DQ)=   -0.25767490544D+03
 E4(SDQ)=  -0.24366384D-02        UMP4(SDQ)=  -0.25767715923D+03
 DE(Corr)= -0.58298049     E(CORR)=     -257.66993990    
 NORM(A)=   0.10342041D+01
 Iteration Nr.   2
 **********************
 DE(Corr)= -0.58905768     E(CORR)=     -257.67601709     Delta=-6.08D-03
 NORM(A)=   0.10354581D+01
 Iteration Nr.   3
 **********************
 DE(Corr)= -0.58920235     E(CORR)=     -257.67616177     Delta=-1.45D-04
 NORM(A)=   0.10355906D+01
 Iteration Nr.   4
 **********************
 DE(Corr)= -0.58942185     E(CORR)=     -257.67638127     Delta=-2.19D-04
 NORM(A)=   0.10356202D+01
 Iteration Nr.   5
 **********************
 DE(Corr)= -0.58943369     E(CORR)=     -257.67639310     Delta=-1.18D-05
 NORM(A)=   0.10356218D+01
 Iteration Nr.   6
 **********************
 DE(Corr)= -0.58943369     E(CORR)=     -257.67639311     Delta=-7.07D-09
 NORM(A)=   0.10356216D+01
 T1 Diagnostic =     0.00546371
 Largest amplitude= 1.54D-02
 Time for triples=       28.64 seconds.
 T4(CCSD)= -0.11471218D-01
 T5(CCSD)=  0.38682572D-03
 CCSD(T)= -0.25768747750D+03
 Variable Step   Value    
 -------- ---- -----------
     1       9    6.614041
 ------------------------------------------------------------------------
                         Z-MATRIX (ANGSTROMS AND DEGREES)
 CD Cent Atom  N1     Length/X     N2    Alpha/Y     N3     Beta/Z      J
 ------------------------------------------------------------------------
   1   1  Ne
   2   2  Ne    1   3.500000(  1)
 ------------------------------------------------------------------------
                         Z-Matrix orientation:                         
 ---------------------------------------------------------------------
 Center     Atomic     Atomic              Coordinates (Angstroms)
 Number     Number      Type              X           Y           Z
 ---------------------------------------------------------------------
    1         10             0        0.000000    0.000000    0.000000
    2         10             0        0.000000    0.000000    3.500000
 ---------------------------------------------------------------------
 Stoichiometry    Ne2
 Framework group  D*H[C*(Ne.Ne)]
 Deg. of freedom     1
 Full point group                 D*H
 Largest Abelian subgroup         D2H     NOp   8
 Largest concise Abelian subgroup C2      NOp   2
                         Standard orientation:                         
 ---------------------------------------------------------------------
 Center     Atomic     Atomic              Coordinates (Angstroms)
 Number     Number      Type              X           Y           Z
 ---------------------------------------------------------------------
    1         10             0        0.000000    0.000000    1.750000
    2         10             0        0.000000    0.000000   -1.750000
 ---------------------------------------------------------------------
 Rotational constants (GHZ):      0.0000000      4.1271031      4.1271031
 Standard basis: CC-pVQZ (5D, 7F)
 There are    22 symmetry adapted basis functions of AG  symmetry.
 There are     7 symmetry adapted basis functions of B1G symmetry.
 There are    13 symmetry adapted basis functions of B2G symmetry.
 There are    13 symmetry adapted basis functions of B3G symmetry.
 There are     7 symmetry adapted basis functions of AU  symmetry.
 There are    22 symmetry adapted basis functions of B1U symmetry.
 There are    13 symmetry adapted basis functions of B2U symmetry.
 There are    13 symmetry adapted basis functions of B3U symmetry.
 Integral buffers will be    131072 words long.
 Raffenetti 1 integral format.
 Two-electron integral symmetry is turned on.
   110 basis functions,   184 primitive gaussians,   140 cartesian basis functions
    10 alpha electrons       10 beta electrons
       nuclear repulsion energy        15.1193488086 Hartrees.
 NAtoms=    2 NActive=    2 NUniq=    1 SFac= 3.00D+00 NAtFMM=   80 NAOKFM=F Big=F
 One-electron integrals computed using PRISM.
 NBasis=   110 RedAO= T  NBF=    22     7    13    13     7    22    13    13
 NBsUse=   110 1.00D-06 NBFU=    22     7    13    13     7    22    13    13
 Initial guess read from the read-write file:
 Initial guess orbital symmetries:
       Occupied  (SGU) (SGG) (SGG) (SGU) (SGG) (PIU) (PIU) (PIG)
                 (PIG) (SGU)
       Virtual   (SGG) (PIU) (PIU) (PIG) (PIG) (SGU) (SGG) (SGU)
                 (SGG) (PIU) (PIU) (DLTG) (DLTG) (DLTU) (DLTU)
                 (PIG) (PIG) (SGU) (SGG) (PIU) (PIU) (PIG) (PIG)
                 (SGU) (SGG) (SGU) (PIU) (PIU) (DLTG) (DLTG) (DLTU)
                 (DLTU) (PHIU) (PHIU) (PHIG) (PHIG) (PIG) (PIG)
                 (SGG) (SGU) (SGG) (PIU) (PIU) (DLTG) (DLTG) (DLTU)
                 (DLTU) (PIG) (PIG) (SGU) (SGG) (SGU) (PIU) (PIU)
                 (PIG) (PIG) (DLTG) (DLTG) (DLTU) (DLTU) (PHIG)
                 (PHIG) (PHIU) (PHIU) (?A) (?A) (?B) (?B) (SGG)
                 (PIU) (PIU) (PIG) (PIG) (SGU) (PIU) (PIU) (PIG)
                 (PIG) (DLTG) (DLTG) (DLTU) (DLTU) (PHIU) (PHIU)
                 (PHIG) (PHIG) (SGG) (SGU) (SGG) (PIU) (PIU) (DLTG)
                 (DLTG) (DLTU) (DLTU) (PIG) (PIG) (SGU) (SGG) (SGU)
 Harris functional with IExCor=  205 diagonalized for initial guess.
 ExpMin= 2.66D-01 ExpMax= 9.99D+04 ExpMxC= 9.59D+02 IAcc=1 IRadAn=         1 AccDes= 1.00D-06
 HarFok:  IExCor= 205 AccDes= 1.00D-06 IRadAn=         1 IDoV=1
 ScaDFX=  1.000000  1.000000  1.000000  1.000000
 Requested convergence on RMS density matrix=1.00D-08 within 128 cycles.
 Requested convergence on MAX density matrix=1.00D-06.
 Requested convergence on             energy=1.00D-06.
 No special actions if energy rises.
 Keep R1 integrals in memory in canonical form, NReq=    54711408.
 SCF Done:  E(RHF) =  -257.086959429     A.U. after    4 cycles
             Convg  =    0.6002D-08             -V/T =  2.0000
             S**2   =   0.0000
 ExpMin= 2.66D-01 ExpMax= 9.99D+04 ExpMxC= 9.59D+02 IAcc=1 IRadAn=         1 AccDes= 1.00D-06
 HarFok:  IExCor= 205 AccDes= 1.00D-06 IRadAn=         1 IDoV=1
 ScaDFX=  1.000000  1.000000  1.000000  1.000000
 Range of M.O.s used for correlation:     3   110
 NBasis=   110 NAE=    10 NBE=    10 NFC=     2 NFV=     0
 NROrb=    108 NOA=     8 NOB=     8 NVA=   100 NVB=   100
 Estimate disk for full transformation   101900898 words.
 Spin components of T(2) and E(2):
     alpha-alpha T2 =       0.9677273997D-02 E2=     -0.7379427963D-01
     alpha-beta  T2 =       0.5236432110D-01 E2=     -0.4396199349D+00
     beta-beta   T2 =       0.9677273997D-02 E2=     -0.7379427963D-01
 ANorm=    0.1035238557D+01
 E2=       -0.5872084942D+00 EUMP2=       -0.25767416792343D+03
 Iterations=  50 Convergence= 0.100D-04
 Iteration Nr.   1
 **********************
 MP4(R+Q)=  0.47112647D-02
 E3=       -0.54242571D-03        EUMP3=      -0.25767471035D+03
 E4(DQ)=   -0.18323738D-03        UMP4(DQ)=   -0.25767489359D+03
 E4(SDQ)=  -0.24357722D-02        UMP4(SDQ)=  -0.25767714612D+03
 DE(Corr)= -0.58296912     E(CORR)=     -257.66992855    
 NORM(A)=   0.10342023D+01
 Iteration Nr.   2
 **********************
 DE(Corr)= -0.58904473     E(CORR)=     -257.67600416     Delta=-6.08D-03
 NORM(A)=   0.10354558D+01
 Iteration Nr.   3
 **********************
 DE(Corr)= -0.58918986     E(CORR)=     -257.67614929     Delta=-1.45D-04
 NORM(A)=   0.10355881D+01
 Iteration Nr.   4
 **********************
 DE(Corr)= -0.58940915     E(CORR)=     -257.67636858     Delta=-2.19D-04
 NORM(A)=   0.10356177D+01
 Iteration Nr.   5
 **********************
 DE(Corr)= -0.58942097     E(CORR)=     -257.67638040     Delta=-1.18D-05
 NORM(A)=   0.10356192D+01
 Iteration Nr.   6
 **********************
 DE(Corr)= -0.58942097     E(CORR)=     -257.67638040     Delta=-3.29D-09
 NORM(A)=   0.10356191D+01
 T1 Diagnostic =     0.00545938
 Largest amplitude= 1.53D-02
 Time for triples=       28.34 seconds.
 T4(CCSD)= -0.11469212D-01
 T5(CCSD)=  0.38654029D-03
 CCSD(T)= -0.25768746307D+03
 Variable Step   Value    
 -------- ---- -----------
     1      10    6.803014
 ------------------------------------------------------------------------
                         Z-MATRIX (ANGSTROMS AND DEGREES)
 CD Cent Atom  N1     Length/X     N2    Alpha/Y     N3     Beta/Z      J
 ------------------------------------------------------------------------
   1   1  Ne
   2   2  Ne    1   3.600000(  1)
 ------------------------------------------------------------------------
                         Z-Matrix orientation:                         
 ---------------------------------------------------------------------
 Center     Atomic     Atomic              Coordinates (Angstroms)
 Number     Number      Type              X           Y           Z
 ---------------------------------------------------------------------
    1         10             0        0.000000    0.000000    0.000000
    2         10             0        0.000000    0.000000    3.600000
 ---------------------------------------------------------------------
 Stoichiometry    Ne2
 Framework group  D*H[C*(Ne.Ne)]
 Deg. of freedom     1
 Full point group                 D*H
 Largest Abelian subgroup         D2H     NOp   8
 Largest concise Abelian subgroup C2      NOp   2
                         Standard orientation:                         
 ---------------------------------------------------------------------
 Center     Atomic     Atomic              Coordinates (Angstroms)
[...]
 Requested convergence on             energy=1.00D-06.
 No special actions if energy rises.
 Keep R1 integrals in memory in canonical form, NReq=    54711408.
 SCF Done:  E(RHF) =  -257.086947033     A.U. after    3 cycles
             Convg  =    0.7352D-08             -V/T =  2.0000
             S**2   =   0.0000
 ExpMin= 2.66D-01 ExpMax= 9.99D+04 ExpMxC= 9.59D+02 IAcc=1 IRadAn=         1 AccDes= 1.00D-06
 HarFok:  IExCor= 205 AccDes= 1.00D-06 IRadAn=         1 IDoV=1
 ScaDFX=  1.000000  1.000000  1.000000  1.000000
 Range of M.O.s used for correlation:     3   110
 NBasis=   110 NAE=    10 NBE=    10 NFC=     2 NFV=     0
 NROrb=    108 NOA=     8 NOB=     8 NVA=   100 NVB=   100
 Estimate disk for full transformation    97140322 words.
 Spin components of T(2) and E(2):
     alpha-alpha T2 =       0.9675061095D-02 E2=     -0.7378614803D-01
     alpha-beta  T2 =       0.5235797258D-01 E2=     -0.4396007697D+00
     beta-beta   T2 =       0.9675061095D-02 E2=     -0.7378614803D-01
 ANorm=    0.1035233353D+01
 E2=       -0.5871730658D+00 EUMP2=       -0.25767412009830D+03
 Iterations=  50 Convergence= 0.100D-04
 Iteration Nr.   1
 **********************
 MP4(R+Q)=  0.47095016D-02
 E3=       -0.54788414D-03        EUMP3=      -0.25767466798D+03
 E4(DQ)=   -0.18386225D-03        UMP4(DQ)=   -0.25767485184D+03
 E4(SDQ)=  -0.24335612D-02        UMP4(SDQ)=  -0.25767710154D+03
 DE(Corr)= -0.58294106     E(CORR)=     -257.66988810    
 NORM(A)=   0.10341976D+01
 Iteration Nr.   2
 **********************
 DE(Corr)= -0.58901304     E(CORR)=     -257.67596008     Delta=-6.07D-03
 NORM(A)=   0.10354502D+01
 Iteration Nr.   3
 **********************
 DE(Corr)= -0.58915920     E(CORR)=     -257.67610623     Delta=-1.46D-04
 NORM(A)=   0.10355822D+01
 Iteration Nr.   4
 **********************
 DE(Corr)= -0.58937806     E(CORR)=     -257.67632509     Delta=-2.19D-04
 NORM(A)=   0.10356116D+01
 Iteration Nr.   5
 **********************
 DE(Corr)= -0.58938983     E(CORR)=     -257.67633686     Delta=-1.18D-05
 NORM(A)=   0.10356132D+01
 Iteration Nr.   6
 **********************
 DE(Corr)= -0.58938982     E(CORR)=     -257.67633685     Delta= 4.92D-09
 NORM(A)=   0.10356130D+01
 T1 Diagnostic =     0.00545050
 Largest amplitude= 1.51D-02
 Time for triples=       29.07 seconds.
 T4(CCSD)= -0.11464524D-01
 T5(CCSD)=  0.38588242D-03
 CCSD(T)= -0.25768741549D+03
 Variable Step   Value    
 -------- ---- -----------
     1      14    7.558905
 ------------------------------------------------------------------------
                         Z-MATRIX (ANGSTROMS AND DEGREES)
 CD Cent Atom  N1     Length/X     N2    Alpha/Y     N3     Beta/Z      J
 ------------------------------------------------------------------------
   1   1  Ne
   2   2  Ne    1   4.000000(  1)
 ------------------------------------------------------------------------
                         Z-Matrix orientation:                         
 ---------------------------------------------------------------------
 Center     Atomic     Atomic              Coordinates (Angstroms)
 Number     Number      Type              X           Y           Z
 ---------------------------------------------------------------------
    1         10             0        0.000000    0.000000    0.000000
    2         10             0        0.000000    0.000000    4.000000
 ---------------------------------------------------------------------
 Stoichiometry    Ne2
 Framework group  D*H[C*(Ne.Ne)]
 Deg. of freedom     1
 Full point group                 D*H
 Largest Abelian subgroup         D2H     NOp   8
 Largest concise Abelian subgroup C2      NOp   2
                         Standard orientation:                         
 ---------------------------------------------------------------------
 Center     Atomic     Atomic              Coordinates (Angstroms)
 Number     Number      Type              X           Y           Z
 ---------------------------------------------------------------------
    1         10             0        0.000000    0.000000    2.000000
    2         10             0        0.000000    0.000000   -2.000000
 ---------------------------------------------------------------------
 Rotational constants (GHZ):      0.0000000      3.1598133      3.1598133
 Standard basis: CC-pVQZ (5D, 7F)
 There are    22 symmetry adapted basis functions of AG  symmetry.
 There are     7 symmetry adapted basis functions of B1G symmetry.
 There are    13 symmetry adapted basis functions of B2G symmetry.
 There are    13 symmetry adapted basis functions of B3G symmetry.
 There are     7 symmetry adapted basis functions of AU  symmetry.
 There are    22 symmetry adapted basis functions of B1U symmetry.
 There are    13 symmetry adapted basis functions of B2U symmetry.
 There are    13 symmetry adapted basis functions of B3U symmetry.
 Integral buffers will be    131072 words long.
 Raffenetti 1 integral format.
 Two-electron integral symmetry is turned on.
   110 basis functions,   184 primitive gaussians,   140 cartesian basis functions
    10 alpha electrons       10 beta electrons
       nuclear repulsion energy        13.2294302075 Hartrees.
 NAtoms=    2 NActive=    2 NUniq=    1 SFac= 3.00D+00 NAtFMM=   80 NAOKFM=F Big=F
 One-electron integrals computed using PRISM.
 NBasis=   110 RedAO= T  NBF=    22     7    13    13     7    22    13    13
 NBsUse=   110 1.00D-06 NBFU=    22     7    13    13     7    22    13    13
 Initial guess read from the read-write file:
 Initial guess orbital symmetries:
       Occupied  (SGU) (SGG) (SGG) (SGU) (SGG) (PIU) (PIU) (PIG)
                 (PIG) (SGU)
       Virtual   (SGG) (PIU) (PIU) (PIG) (PIG) (SGU) (SGG) (SGU)
                 (SGG) (PIU) (PIU) (DLTG) (DLTG) (DLTU) (DLTU)
                 (PIG) (PIG) (SGU) (SGG) (PIU) (PIU) (PIG) (PIG)
                 (SGU) (SGG) (SGU) (PIU) (PIU) (PIG) (PIG) (SGG)
                 (DLTG) (DLTG) (DLTU) (DLTU) (PHIU) (PHIU) (PHIG)
                 (PHIG) (SGU) (PIU) (PIU) (DLTU) (DLTU) (DLTG)
                 (DLTG) (PIG) (PIG) (SGG) (SGU) (SGG) (SGU) (PIU)
                 (PIU) (PIG) (PIG) (DLTU) (DLTU) (DLTG) (DLTG)
                 (PHIG) (PHIG) (PHIU) (PHIU) (?A) (?A) (?B) (?B)
                 (SGG) (PIU) (PIU) (PIG) (PIG) (SGU) (SGG) (SGU)
                 (PIU) (PIU) (PIG) (PIG) (DLTG) (DLTG) (DLTU) (DLTU)
                 (PHIU) (PHIU) (PHIG) (PHIG) (SGG) (PIU) (PIU)
                 (PIG) (PIG) (DLTG) (DLTG) (DLTU) (DLTU) (SGU)
                 (SGG) (SGU)
 Harris functional with IExCor=  205 diagonalized for initial guess.
 ExpMin= 2.66D-01 ExpMax= 9.99D+04 ExpMxC= 9.59D+02 IAcc=1 IRadAn=         1 AccDes= 1.00D-06
 HarFok:  IExCor= 205 AccDes= 1.00D-06 IRadAn=         1 IDoV=1
 ScaDFX=  1.000000  1.000000  1.000000  1.000000
 Requested convergence on RMS density matrix=1.00D-08 within 128 cycles.
 Requested convergence on MAX density matrix=1.00D-06.
 Requested convergence on             energy=1.00D-06.
 No special actions if energy rises.
 Keep R1 integrals in memory in canonical form, NReq=    54711408.
 SCF Done:  E(RHF) =  -257.086944603     A.U. after    3 cycles
             Convg  =    0.6391D-08             -V/T =  2.0000
             S**2   =   0.0000
 ExpMin= 2.66D-01 ExpMax= 9.99D+04 ExpMxC= 9.59D+02 IAcc=1 IRadAn=         1 AccDes= 1.00D-06
 HarFok:  IExCor= 205 AccDes= 1.00D-06 IRadAn=         1 IDoV=1
 ScaDFX=  1.000000  1.000000  1.000000  1.000000
 Range of M.O.s used for correlation:     3   110
 NBasis=   110 NAE=    10 NBE=    10 NFC=     2 NFV=     0
 NROrb=    108 NOA=     8 NOB=     8 NVA=   100 NVB=   100
 Estimate disk for full transformation    95742562 words.
 Spin components of T(2) and E(2):
     alpha-alpha T2 =       0.9674771188D-02 E2=     -0.7378501319D-01
     alpha-beta  T2 =       0.5235715223D-01 E2=     -0.4395981487D+00
     beta-beta   T2 =       0.9674771188D-02 E2=     -0.7378501319D-01
 ANorm=    0.1035232677D+01
 E2=       -0.5871681751D+00 EUMP2=       -0.25767411277780D+03
 Iterations=  50 Convergence= 0.100D-04
 Iteration Nr.   1
 **********************
 MP4(R+Q)=  0.47092875D-02
 E3=       -0.54854766D-03        EUMP3=      -0.25767466133D+03
 E4(DQ)=   -0.18394525D-03        UMP4(DQ)=   -0.25767484527D+03
 E4(SDQ)=  -0.24333321D-02        UMP4(SDQ)=  -0.25767709466D+03
 DE(Corr)= -0.58293707     E(CORR)=     -257.66988167    
 NORM(A)=   0.10341970D+01
 Iteration Nr.   2
 **********************
 DE(Corr)= -0.58900865     E(CORR)=     -257.67595326     Delta=-6.07D-03
 NORM(A)=   0.10354495D+01
 Iteration Nr.   3
 **********************
 DE(Corr)= -0.58915491     E(CORR)=     -257.67609951     Delta=-1.46D-04
 NORM(A)=   0.10355815D+01
 Iteration Nr.   4
 **********************
 DE(Corr)= -0.58937373     E(CORR)=     -257.67631833     Delta=-2.19D-04
 NORM(A)=   0.10356109D+01
 Iteration Nr.   5
 **********************
 DE(Corr)= -0.58938549     E(CORR)=     -257.67633009     Delta=-1.18D-05
 NORM(A)=   0.10356124D+01
 Iteration Nr.   6
 **********************
 DE(Corr)= -0.58938548     E(CORR)=     -257.67633009     Delta= 5.73D-09
 NORM(A)=   0.10356123D+01
 T1 Diagnostic =     0.00544963
 Largest amplitude= 1.51D-02
 Time for triples=       28.71 seconds.
 T4(CCSD)= -0.11463944D-01
 T5(CCSD)=  0.38580848D-03
 CCSD(T)= -0.25768740822D+03
 Variable Step   Value    
 -------- ---- -----------
     1      15    7.747877
 ------------------------------------------------------------------------
                         Z-MATRIX (ANGSTROMS AND DEGREES)
 CD Cent Atom  N1     Length/X     N2    Alpha/Y     N3     Beta/Z      J
 ------------------------------------------------------------------------
   1   1  Ne
   2   2  Ne    1   4.100000(  1)
 ------------------------------------------------------------------------
                         Z-Matrix orientation:                         
 ---------------------------------------------------------------------
 Center     Atomic     Atomic              Coordinates (Angstroms)
 Number     Number      Type              X           Y           Z
 ---------------------------------------------------------------------
    1         10             0        0.000000    0.000000    0.000000
    2         10             0        0.000000    0.000000    4.100000
 ---------------------------------------------------------------------
 Stoichiometry    Ne2
 Framework group  D*H[C*(Ne.Ne)]
 Deg. of freedom     1
 Full point group                 D*H
 Largest Abelian subgroup         D2H     NOp   8
 Largest concise Abelian subgroup C2      NOp   2
                         Standard orientation:                         
 ---------------------------------------------------------------------
 Center     Atomic     Atomic              Coordinates (Angstroms)
 Number     Number      Type              X           Y           Z
 ---------------------------------------------------------------------
    1         10             0        0.000000    0.000000    2.050000
    2         10             0        0.000000    0.000000   -2.050000
 ---------------------------------------------------------------------
 Rotational constants (GHZ):      0.0000000      3.0075558      3.0075558
 Standard basis: CC-pVQZ (5D, 7F)
 There are    22 symmetry adapted basis functions of AG  symmetry.
 There are     7 symmetry adapted basis functions of B1G symmetry.
 There are    13 symmetry adapted basis functions of B2G symmetry.
 There are    13 symmetry adapted basis functions of B3G symmetry.
 There are     7 symmetry adapted basis functions of AU  symmetry.
 There are    22 symmetry adapted basis functions of B1U symmetry.
 There are    13 symmetry adapted basis functions of B2U symmetry.
 There are    13 symmetry adapted basis functions of B3U symmetry.
 Integral buffers will be    131072 words long.
 Raffenetti 1 integral format.
 Two-electron integral symmetry is turned on.
   110 basis functions,   184 primitive gaussians,   140 cartesian basis functions
    10 alpha electrons       10 beta electrons
       nuclear repulsion energy        12.9067611780 Hartrees.
 NAtoms=    2 NActive=    2 NUniq=    1 SFac= 3.00D+00 NAtFMM=   80 NAOKFM=F Big=F
 One-electron integrals computed using PRISM.
 NBasis=   110 RedAO= T  NBF=    22     7    13    13     7    22    13    13
 NBsUse=   110 1.00D-06 NBFU=    22     7    13    13     7    22    13    13
 Initial guess read from the read-write file:
 Initial guess orbital symmetries:
       Occupied  (SGU) (SGG) (SGG) (SGU) (SGG) (PIU) (PIU) (PIG)
                 (PIG) (SGU)
       Virtual   (SGG) (PIU) (PIU) (PIG) (PIG) (SGU) (SGG) (SGU)
                 (SGG) (PIU) (PIU) (DLTG) (DLTG) (DLTU) (DLTU)
                 (PIG) (PIG) (SGU) (SGG) (PIU) (PIU) (PIG) (PIG)
                 (SGU) (SGG) (SGU) (PIU) (PIU) (SGG) (PIG) (PIG)
                 (DLTG) (DLTG) (DLTU) (DLTU) (SGU) (PHIU) (PHIU)
                 (PHIG) (PHIG) (PIG) (PIG) (PIU) (PIU) (DLTU) (DLTU)
                 (DLTG) (DLTG) (SGG) (SGU) (SGG) (SGU) (PIU) (PIU)
                 (PIG) (PIG) (DLTU) (DLTU) (DLTG) (DLTG) (PHIG)
                 (PHIG) (PHIU) (PHIU) (?A) (?A) (?B) (?B) (SGG)
                 (PIU) (PIU) (PIG) (PIG) (SGU) (SGG) (SGU) (PIU)
                 (PIU) (PIG) (PIG) (DLTG) (DLTG) (DLTU) (DLTU)
                 (PHIU) (PHIU) (PHIG) (PHIG) (SGG) (PIU) (PIU)
                 (PIG) (PIG) (DLTG) (DLTG) (DLTU) (DLTU) (SGU)
                 (SGG) (SGU)
 Harris functional with IExCor=  205 diagonalized for initial guess.
 ExpMin= 2.66D-01 ExpMax= 9.99D+04 ExpMxC= 9.59D+02 IAcc=1 IRadAn=         1 AccDes= 1.00D-06
 HarFok:  IExCor= 205 AccDes= 1.00D-06 IRadAn=         1 IDoV=1
 ScaDFX=  1.000000  1.000000  1.000000  1.000000
 Requested convergence on RMS density matrix=1.00D-08 within 128 cycles.
 Requested convergence on MAX density matrix=1.00D-06.
 Requested convergence on             energy=1.00D-06.
 No special actions if energy rises.
 Keep R1 integrals in memory in canonical form, NReq=    54711408.
 SCF Done:  E(RHF) =  -257.086942791     A.U. after    3 cycles
             Convg  =    0.5513D-08             -V/T =  2.0000
             S**2   =   0.0000
 ExpMin= 2.66D-01 ExpMax= 9.99D+04 ExpMxC= 9.59D+02 IAcc=1 IRadAn=         1 AccDes= 1.00D-06
 HarFok:  IExCor= 205 AccDes= 1.00D-06 IRadAn=         1 IDoV=1
 ScaDFX=  1.000000  1.000000  1.000000  1.000000
 Range of M.O.s used for correlation:     3   110
 NBasis=   110 NAE=    10 NBE=    10 NFC=     2 NFV=     0
 NROrb=    108 NOA=     8 NOB=     8 NVA=   100 NVB=   100
 Estimate disk for full transformation    93555810 words.
 Spin components of T(2) and E(2):
     alpha-alpha T2 =       0.9674550187D-02 E2=     -0.7378410761D-01
     alpha-beta  T2 =       0.5235654530D-01 E2=     -0.4395960968D+00
     beta-beta   T2 =       0.9674550187D-02 E2=     -0.7378410761D-01
 ANorm=    0.1035232170D+01
 E2=       -0.5871643120D+00 EUMP2=       -0.25767410710269D+03
 Iterations=  50 Convergence= 0.100D-04
 Iteration Nr.   1
 **********************
 MP4(R+Q)=  0.47091223D-02
 E3=       -0.54900999D-03        EUMP3=      -0.25767465611D+03
 E4(DQ)=   -0.18402008D-03        UMP4(DQ)=   -0.25767484013D+03
 E4(SDQ)=  -0.24331863D-02        UMP4(SDQ)=  -0.25767708930D+03
 DE(Corr)= -0.58293385     E(CORR)=     -257.66987664    
 NORM(A)=   0.10341966D+01
 Iteration Nr.   2
 **********************
 DE(Corr)= -0.58900516     E(CORR)=     -257.67594795     Delta=-6.07D-03
 NORM(A)=   0.10354490D+01
 Iteration Nr.   3
 **********************
 DE(Corr)= -0.58915148     E(CORR)=     -257.67609427     Delta=-1.46D-04
 NORM(A)=   0.10355810D+01
 Iteration Nr.   4
 **********************
 DE(Corr)= -0.58937027     E(CORR)=     -257.67631306     Delta=-2.19D-04
 NORM(A)=   0.10356104D+01
 Iteration Nr.   5
 **********************
 DE(Corr)= -0.58938203     E(CORR)=     -257.67632482     Delta=-1.18D-05
 NORM(A)=   0.10356119D+01
 Iteration Nr.   6
 **********************
 DE(Corr)= -0.58938202     E(CORR)=     -257.67632481     Delta= 6.25D-09
 NORM(A)=   0.10356117D+01
 T1 Diagnostic =     0.00544903
 Largest amplitude= 1.51D-02
 Time for triples=       28.87 seconds.
 T4(CCSD)= -0.11463507D-01
 T5(CCSD)=  0.38575561D-03
 CCSD(T)= -0.25768740256D+03
 Scan completed.

 Summary of the potential surface scan:
   N       d          SCF          MP2          MP3    
 ----  ---------  -----------  -----------  -----------
    1     2.6000   -257.08612   -257.67356   -257.67413
    2     2.7000   -257.08645   -257.67385   -257.67441
    3     2.8000   -257.08666   -257.67402   -257.67457
    4     2.9000   -257.08679   -257.67412   -257.67466
    5     3.0000   -257.08687   -257.67417   -257.67471
    6     3.1000   -257.08691   -257.67420   -257.67473
    7     3.2000   -257.08694   -257.67420   -257.67474
    8     3.3000   -257.08695   -257.67419   -257.67473
    9     3.4000   -257.08696   -257.67418   -257.67472
   10     3.5000   -257.08696   -257.67417   -257.67471
   11     3.6000   -257.08696   -257.67415   -257.67470
   12     3.7000   -257.08695   -257.67414   -257.67469
   13     3.8000   -257.08695   -257.67413   -257.67468
   14     3.9000   -257.08695   -257.67412   -257.67467
   15     4.0000   -257.08694   -257.67411   -257.67466
   16     4.1000   -257.08694   -257.67411   -257.67466
 ----  ---------  -----------  -----------  -----------
  
 1\1\GINC-PERDIU20\Scan\RCCSD(T)-FC\CC-pVQZ\Ne2\RAMON\29-Oct-2020\1\\#N
  CCSD(T, T1Diag, CONVER=5)/cc-pVQZ SCF=Tight Scan\\Ne2\\0,1\Ne\Ne,1,d\
 \d=2.6,s,15,0.1\\Version=EM64L-G03RevE.01\HF=-257.0861237,-257.0864522
 ,-257.0866586,-257.0867877,-257.0868673,-257.0869148,-257.0869414,-257
 .0869546,-257.0869594,-257.0869594,-257.086957,-257.0869535,-257.08695
 01,-257.086947,-257.0869446,-257.0869428\MP2=-257.6735551,-257.6738462
 ,-257.6740195,-257.674119,-257.6741719,-257.6741951,-257.6742,-257.674
 1939,-257.6741821,-257.6741679,-257.6741536,-257.6741406,-257.6741293,
 -257.6741201,-257.6741128,-257.6741071\MP3=-257.674134,-257.6744078,-2
 57.6745693,-257.6746615,-257.6747104,-257.6747322,-257.6747373,-257.67
 47326,-257.6747226,-257.6747103,-257.6746979,-257.6746863,-257.6746763
 ,-257.674668,-257.6746613,-257.6746561\MP4D=-257.6790257,-257.6793017,
 -257.6794646,-257.6795575,-257.6796066,-257.6796283,-257.6796332,-257.
 679628,-257.6796175,-257.6796049,-257.679592,-257.6795801,-257.6795698
 ,-257.6795613,-257.6795546,-257.6795493\MP4DQ=-257.6742875,-257.674570
 5,-257.6747387,-257.6748356,-257.6748878,-257.6749119,-257.6749186,-25
 7.6749148,-257.6749054,-257.6748936,-257.6748813,-257.67487,-257.67486
 01,-257.6748518,-257.6748453,-257.6748401\MP4SDQ=-257.6765507,-257.676
 8337,-257.6770014,-257.6770973,-257.6771481,-257.6771705,-257.6771755,
 -257.6771701,-257.6771592,-257.6771461,-257.6771329,-257.6771207,-257.
 6771102,-257.6771015,-257.6770947,-257.6770893\CCSD=-257.6757885,-257.
 6760694,-257.6762356,-257.6763306,-257.676381,-257.6764034,-257.676408
 6,-257.6764036,-257.6763931,-257.6763804,-257.6763675,-257.6763556,-25
 7.6763453,-257.6763369,-257.6763301,-257.6763248\CCSD(T)=-257.6869015,
 -257.6871768,-257.6873383,-257.6874292,-257.6874759,-257.6874952,-257.
 6874975,-257.68749,-257.6874775,-257.6874631,-257.6874488,-257.6874358
 ,-257.6874246,-257.6874155,-257.6874082,-257.6874026\RMSD=1.411e-09,1.
 697e-09,1.377e-09,4.050e-09,7.931e-10,9.011e-09,6.252e-09,4.734e-09,9.
 067e-09,6.002e-09,4.138e-09,2.722e-09,9.040e-09,7.352e-09,6.391e-09,5.
 513e-09\Thermal=0.,0.,0.,0.,0.,0.,0.,0.,0.,0.,0.,0.,0.,0.,0.,0.\PG=D*H
  [C*(Ne1.Ne1)]\\@


 IT PROBABLY IS NOT POSSIBLE FOR A SCIENTIST TO INTERROGATE NATURE 
 FROM A WHOLLY DISINTERESTED VIEWPOINT.
 EVEN IF HE HAS NO PARTICULAR AXE TO GRIND, HE IS LIKELY TO HAVE 
 A DISTINCTIVE WAY OF VIEWING NATURE.

                                                   -- JOHN LOSEE
 Job cpu time:  0 days  0 hours 34 minutes 20.3 seconds.
 File lengths (MBytes):  RWF=    113 Int=      0 D2E=      0 Chk=     17 Scr=      1
 Normal termination of Gaussian 03 at Thu Oct 29 17:47:50 2020.
